/*--------------------------------*- C++ -*----------------------------------*\
  =========                 |
  \\      /  F ield         | OpenFOAM: The Open Source CFD Toolbox
   \\    /   O peration     | Website:  https://openfoam.org
    \\  /    A nd           | Version:  7
     \\/     M anipulation  |
\*---------------------------------------------------------------------------*/
FoamFile
{
    version     2.0;
    format      ascii;
    class       volScalarField;
    location    "5266512000";
    object      p;
}
// * * * * * * * * * * * * * * * * * * * * * * * * * * * * * * * * * * * * * //

dimensions      [1 -1 -2 0 0 0 0];

internalField   nonuniform List<scalar> 
19846
(
30009671
30009745
30009743
30009700
30009650
30009600
30009555
30009516
30009484
30009458
30009438
30009423
30009411
30009403
30009397
30009393
30009390
30009388
30009386
30009384
30009382
30009381
30009381
30009384
30009395
30009431
30029003
30029143
30029123
30029018
30028886
30028752
30028629
30028522
30028432
30028359
30028302
30028258
30028225
30028200
30028182
30028169
30028159
30028151
30028145
30028140
30028135
30028133
30028133
30028138
30028149
30028161
30048214
30048327
30048293
30048161
30047984
30047798
30047622
30047466
30047334
30047226
30047139
30047071
30047018
30046978
30046947
30046924
30046907
30046894
30046883
30046874
30046867
30046864
30046865
30046873
30046889
30046915
30067252
30067329
30067280
30067135
30066940
30066729
30066525
30066341
30066182
30066049
30065941
30065855
30065786
30065733
30065692
30065661
30065636
30065617
30065601
30065589
30065580
30065576
30065578
30065588
30065609
30065644
30086139
30086182
30086118
30085969
30085771
30085554
30085340
30085144
30084972
30084826
30084704
30084605
30084526
30084463
30084413
30084374
30084344
30084319
30084300
30084284
30084273
30084267
30084269
30084280
30084303
30084341
30104901
30104916
30104840
30104692
30104499
30104287
30104077
30103880
30103705
30103554
30103426
30103320
30103234
30103164
30103108
30103064
30103028
30103000
30102976
30102957
30102943
30102936
30102936
30102947
30102971
30103010
30123559
30123553
30123471
30123327
30123145
30122946
30122745
30122556
30122385
30122235
30122107
30121999
30121909
30121836
30121777
30121729
30121689
30121657
30121630
30121608
30121591
30121582
30121580
30121590
30121613
30121652
30142134
30142116
30142032
30141896
30141727
30141542
30141357
30141180
30141018
30140874
30140749
30140643
30140553
30140479
30140418
30140368
30140326
30140291
30140262
30140236
30140217
30140204
30140200
30140207
30140227
30140263
30160653
30160624
30160539
30160412
30160258
30160090
30159921
30159758
30159608
30159473
30159355
30159253
30159166
30159094
30159033
30158982
30158939
30158902
30158870
30158842
30158819
30158803
30158795
30158798
30158814
30158844
30179126
30179089
30179006
30178888
30178749
30178598
30178445
30178298
30178161
30178037
30177928
30177832
30177750
30177681
30177622
30177572
30177529
30177491
30177456
30177426
30177400
30177379
30177367
30177365
30177375
30177399
30197568
30197522
30197442
30197334
30197208
30197073
30196937
30196806
30196683
30196571
30196471
30196383
30196308
30196242
30196187
30196138
30196096
30196057
30196021
30195988
30195958
30195933
30195916
30195908
30195912
30195929
30215970
30215928
30215853
30215755
30215643
30215523
30215403
30215287
30215177
30215078
30214988
30214909
30214840
30214780
30214728
30214683
30214641
30214602
30214565
30214529
30214496
30214466
30214443
30214429
30214425
30214434
30234365
30234316
30234245
30234157
30234057
30233952
30233847
30233745
30233649
30233561
30233482
30233412
30233351
30233297
30233249
30233206
30233166
30233128
30233089
30233051
30233014
30232980
30232951
30232930
30232918
30232917
30252727
30252686
30252622
30252544
30252456
30252364
30252273
30252184
30252101
30252025
30251956
30251895
30251841
30251793
30251751
30251711
30251673
30251635
30251595
30251555
30251514
30251475
30251440
30251412
30251392
30251382
30271084
30271046
30270989
30270920
30270843
30270763
30270684
30270608
30270536
30270471
30270413
30270360
30270314
30270273
30270235
30270199
30270163
30270125
30270085
30270042
30269997
30269954
30269913
30269877
30269849
30269831
30289444
30289402
30289349
30289287
30289220
30289151
30289083
30289019
30288958
30288904
30288854
30288811
30288772
30288736
30288703
30288671
30288637
30288600
30288559
30288514
30288466
30288417
30288370
30288328
30288292
30288266
30307788
30307751
30307703
30307649
30307590
30307531
30307473
30307419
30307369
30307324
30307283
30307248
30307216
30307186
30307158
30307129
30307097
30307061
30307019
30306972
30306920
30306867
30306814
30306765
30306722
30306687
30326134
30326098
30326054
30326006
30325955
30325905
30325856
30325811
30325770
30325734
30325702
30325674
30325648
30325625
30325601
30325575
30325546
30325510
30325467
30325418
30325362
30325304
30325246
30325190
30325139
30325095
30344474
30344441
30344402
30344360
30344316
30344274
30344234
30344197
30344164
30344136
30344111
30344090
30344071
30344053
30344033
30344011
30343983
30343948
30343904
30343852
30343794
30343731
30343667
30343606
30343548
30343497
30362815
30362785
30362749
30362712
30362675
30362639
30362607
30362578
30362552
30362531
30362514
30362499
30362486
30362472
30362457
30362437
30362411
30362376
30362332
30362277
30362215
30362148
30362079
30362012
30361950
30361895
30381162
30381130
30381097
30381064
30381032
30381003
30380977
30380954
30380936
30380922
30380910
30380901
30380893
30380884
30380873
30380856
30380831
30380796
30380751
30380694
30380628
30380557
30380483
30380410
30380342
30380280
30399505
30399475
30399445
30399415
30399389
30399365
30399345
30399329
30399317
30399308
30399303
30399299
30399296
30399291
30399282
30399268
30399244
30399210
30399163
30399103
30399034
30398958
30398879
30398800
30398727
30398663
30417846
30417820
30417793
30417768
30417746
30417727
30417712
30417701
30417695
30417692
30417692
30417693
30417694
30417692
30417687
30417674
30417652
30417617
30417569
30417507
30417434
30417353
30417267
30417182
30417102
30417031
30436191
30436167
30436144
30436122
30436104
30436089
30436079
30436074
30436072
30436074
30436078
30436084
30436088
30436091
30436088
30436077
30436055
30436020
30435970
30435906
30435829
30435742
30435651
30435558
30435468
30435382
30454543
30454519
30454498
30454479
30454464
30454454
30454448
30454447
30454449
30454455
30454464
30454473
30454481
30454486
30454486
30454476
30454455
30454420
30454368
30454301
30454220
30454129
30454032
30453931
30453830
30453728
30472897
30472875
30472855
30472839
30472827
30472820
30472818
30472821
30472827
30472837
30472849
30472862
30472873
30472880
30472882
30472874
30472853
30472817
30472764
30472694
30472610
30472514
30472411
30472305
30472197
30472089
30491254
30491234
30491217
30491203
30491194
30491190
30491191
30491196
30491206
30491219
30491235
30491250
30491264
30491274
30491277
30491270
30491249
30491212
30491158
30491086
30490998
30490899
30490792
30490681
30490569
30490457
30509618
30509600
30509584
30509571
30509564
30509563
30509566
30509575
30509587
30509603
30509621
30509640
30509656
30509667
30509672
30509665
30509645
30509607
30509551
30509477
30509386
30509283
30509173
30509060
30508946
30508826
30527999
30527974
30527957
30527945
30527939
30527939
30527945
30527956
30527971
30527990
30528010
30528030
30528048
30528062
30528067
30528061
30528041
30528003
30527945
30527868
30527774
30527669
30527556
30527442
30527334
30527253
30546374
30546351
30546334
30546323
30546319
30546320
30546328
30546340
30546358
30546378
30546401
30546423
30546443
30546457
30546464
30546458
30546437
30546398
30546339
30546259
30546163
30546054
30545938
30545818
30545698
30545572
30564758
30564734
30564717
30564707
30564703
30564705
30564714
30564729
30564748
30564770
30564794
30564818
30564839
30564855
30564862
30564857
30564835
30564795
30564734
30564652
30564553
30564441
30564322
30564198
30564075
30563953
30583144
30583122
30583105
30583095
30583092
30583095
30583105
30583121
30583141
30583165
30583191
30583216
30583238
30583255
30583262
30583257
30583235
30583193
30583130
30583047
30582945
30582830
30582708
30582582
30582458
30582339
30601539
30601516
30601499
30601489
30601486
30601490
30601501
30601518
30601539
30601564
30601591
30601617
30601640
30601657
30601665
30601659
30601637
30601594
30601529
30601443
30601338
30601221
30601096
30600968
30600842
30600724
30619943
30619918
30619899
30619888
30619885
30619890
30619901
30619919
30619941
30619967
30619995
30620022
30620045
30620063
30620071
30620065
30620042
30619997
30619930
30619842
30619734
30619614
30619485
30619355
30619227
30619104
30638357
30638326
30638305
30638293
30638290
30638295
30638307
30638325
30638348
30638375
30638403
30638430
30638455
30638472
30638480
30638474
30638449
30638403
30638334
30638243
30638133
30638009
30637877
30637744
30637613
30637491
30656770
30656737
30656715
30656703
30656700
30656705
30656717
30656736
30656759
30656787
30656815
30656843
30656868
30656886
30656893
30656886
30656860
30656813
30656741
30656647
30656534
30656407
30656272
30656134
30655999
30655870
30675177
30675149
30675129
30675118
30675115
30675120
30675133
30675152
30675176
30675204
30675233
30675261
30675285
30675303
30675310
30675302
30675275
30675226
30675152
30675055
30674939
30674808
30674669
30674527
30674386
30674247
30693595
30693568
30693549
30693538
30693536
30693541
30693554
30693573
30693598
30693625
30693655
30693683
30693708
30693725
30693731
30693722
30693694
30693643
30693566
30693467
30693347
30693214
30693071
30692926
30692780
30692633
30712014
30711993
30711975
30711965
30711962
30711968
30711981
30712000
30712025
30712053
30712082
30712110
30712135
30712151
30712157
30712147
30712117
30712064
30711985
30711883
30711760
30711624
30711479
30711332
30711186
30711048
30730464
30730431
30730410
30730399
30730396
30730401
30730414
30730433
30730457
30730485
30730515
30730543
30730566
30730583
30730587
30730576
30730545
30730489
30730408
30730303
30730178
30730038
30729891
30729742
30729596
30729455
30748901
30748873
30748852
30748840
30748836
30748841
30748853
30748872
30748896
30748924
30748953
30748980
30749004
30749019
30749023
30749010
30748977
30748920
30748836
30748728
30748599
30748458
30748308
30748158
30748010
30747870
30767358
30767325
30767302
30767288
30767283
30767287
30767298
30767317
30767340
30767368
30767396
30767423
30767446
30767461
30767463
30767450
30767414
30767355
30767268
30767157
30767026
30766881
30766729
30766577
30766429
30766290
30785821
30785784
30785758
30785743
30785736
30785739
30785750
30785768
30785791
30785818
30785845
30785872
30785894
30785908
30785909
30785894
30785857
30785794
30785705
30785591
30785457
30785309
30785155
30785000
30784850
30784712
30804289
30804250
30804222
30804204
30804196
30804198
30804208
30804225
30804247
30804273
30804300
30804326
30804347
30804360
30804360
30804343
30804304
30804239
30804147
30804030
30803893
30803742
30803584
30803425
30803270
30803123
30822762
30822721
30822691
30822672
30822663
30822663
30822672
30822688
30822710
30822735
30822761
30822786
30822806
30822818
30822817
30822798
30822757
30822690
30822595
30822474
30822334
30822179
30822018
30821855
30821694
30821538
30841243
30841199
30841167
30841146
30841135
30841135
30841142
30841157
30841178
30841202
30841228
30841252
30841271
30841281
30841279
30841258
30841215
30841145
30841047
30840924
30840780
30840622
30840458
30840292
30840128
30839970
30859726
30859682
30859648
30859626
30859614
30859612
30859619
30859633
30859652
30859676
30859700
30859723
30859741
30859751
30859746
30859724
30859678
30859606
30859505
30859379
30859232
30859072
30858905
30858737
30858572
30858412
30878216
30878170
30878136
30878112
30878099
30878096
30878101
30878114
30878133
30878155
30878179
30878201
30878217
30878225
30878219
30878195
30878148
30878072
30877969
30877839
30877690
30877527
30877359
30877190
30877026
30876871
30896712
30896666
30896630
30896605
30896590
30896586
30896590
30896602
30896619
30896640
30896663
30896684
30896699
30896706
30896698
30896672
30896622
30896544
30896438
30896306
30896153
30895989
30895818
30895649
30895487
30895336
30915218
30915169
30915131
30915104
30915088
30915082
30915085
30915095
30915111
30915131
30915153
30915172
30915187
30915191
30915182
30915154
30915102
30915022
30914912
30914777
30914622
30914455
30914283
30914113
30913950
30913797
30933733
30933680
30933639
30933610
30933592
30933584
30933585
30933594
30933609
30933628
30933648
30933667
30933680
30933683
30933672
30933642
30933587
30933505
30933392
30933254
30933097
30932927
30932753
30932581
30932416
30932263
30952255
30952198
30952153
30952122
30952102
30952092
30952092
30952099
30952113
30952131
30952150
30952167
30952178
30952180
30952167
30952135
30952078
30951993
30951877
30951737
30951576
30951404
30951228
30951054
30950888
30950732
30970780
30970720
30970673
30970639
30970617
30970606
30970604
30970610
30970623
30970639
30970657
30970672
30970682
30970682
30970668
30970634
30970574
30970486
30970368
30970224
30970061
30969887
30969709
30969533
30969364
30969204
30989311
30989248
30989198
30989162
30989138
30989125
30989122
30989127
30989138
30989153
30989169
30989183
30989192
30989190
30989174
30989138
30989076
30988985
30988864
30988717
30988551
30988374
30988195
30988017
30987847
30987687
31007844
31007779
31007728
31007690
31007665
31007650
31007645
31007649
31007658
31007672
31007687
31007700
31007707
31007704
31007685
31007647
31007583
31007489
31007364
31007215
31007046
31006868
31006686
31006508
31006338
31006181
31026385
31026315
31026263
31026224
31026197
31026180
31026174
31026176
31026184
31026196
31026210
31026221
31026227
31026222
31026202
31026161
31026094
31025998
31025870
31025718
31025547
31025366
31025183
31025004
31024833
31024676
31044896
31044851
31044803
31044763
31044734
31044716
31044708
31044708
31044715
31044726
31044738
31044748
31044752
31044746
31044724
31044680
31044611
31044511
31044381
31044226
31044052
31043869
31043684
31043504
31043333
31043175
31063496
31063411
31063352
31063308
31063277
31063257
31063247
31063246
31063252
31063261
31063272
31063280
31063282
31063274
31063250
31063205
31063133
31063030
31062897
31062738
31062562
31062377
31062191
31062010
31061838
31061680
31082038
31081965
31081905
31081859
31081825
31081803
31081792
31081789
31081793
31081801
31081810
31081817
31081818
31081808
31081781
31081734
31081659
31081553
31081417
31081256
31081077
31080890
31080702
31080520
31080348
31080190
31100600
31100525
31100463
31100414
31100378
31100355
31100342
31100337
31100339
31100346
31100353
31100359
31100358
31100346
31100318
31100267
31100190
31100081
31099942
31099777
31099596
31099407
31099218
31099035
31098862
31098705
31119169
31119090
31119025
31118974
31118937
31118911
31118896
31118890
31118890
31118895
31118902
31118905
31118903
31118889
31118858
31118806
31118725
31118613
31118471
31118303
31118119
31117928
31117738
31117554
31117381
31117222
31137741
31137659
31137592
31137539
31137499
31137472
31137455
31137447
31137446
31137450
31137454
31137456
31137452
31137436
31137403
31137348
31137265
31137150
31137004
31136833
31136647
31136454
31136262
31136077
31135905
31135748
31156319
31156233
31156163
31156108
31156066
31156037
31156018
31156009
31156006
31156008
31156011
31156012
31156006
31155988
31155953
31155895
31155809
31155690
31155541
31155367
31155178
31154983
31154789
31154604
31154433
31154278
31174897
31174810
31174739
31174681
31174638
31174606
31174586
31174575
31174571
31174571
31174573
31174572
31174564
31174544
31174507
31174446
31174357
31174235
31174082
31173905
31173713
31173516
31173321
31173134
31172962
31172808
31193479
31193392
31193318
31193259
31193213
31193180
31193158
31193146
31193140
31193139
31193139
31193136
31193126
31193104
31193065
31193001
31192909
31192783
31192627
31192447
31192252
31192052
31191855
31191667
31191493
31191335
31212071
31211979
31211902
31211841
31211793
31211758
31211734
31211720
31211713
31211710
31211708
31211704
31211692
31211668
31211626
31211560
31211464
31211336
31211176
31210992
31210794
31210592
31210393
31210203
31210027
31209868
31230665
31230570
31230491
31230427
31230377
31230340
31230314
31230299
31230290
31230286
31230282
31230276
31230263
31230237
31230192
31230123
31230024
31229891
31229728
31229541
31229340
31229135
31228934
31228743
31228566
31228413
31249263
31249165
31249083
31249016
31248964
31248926
31248898
31248881
31248871
31248865
31248860
31248852
31248837
31248808
31248761
31248689
31248587
31248451
31248284
31248093
31247890
31247683
31247480
31247286
31247101
31246913
31267865
31267763
31267678
31267610
31267556
31267515
31267486
31267467
31267455
31267448
31267441
31267432
31267415
31267384
31267335
31267260
31267153
31267014
31266843
31266649
31266443
31266234
31266031
31265839
31265664
31265519
31286469
31286364
31286277
31286206
31286150
31286108
31286077
31286057
31286043
31286035
31286026
31286015
31285996
31285963
31285911
31285833
31285723
31285580
31285405
31285208
31285000
31284789
31284585
31284394
31284220
31284068
31305067
31304967
31304879
31304806
31304749
31304704
31304672
31304650
31304635
31304625
31304615
31304602
31304581
31304546
31304491
31304410
31304297
31304149
31303970
31303770
31303559
31303346
31303141
31302950
31302776
31302623
31323684
31323576
31323485
31323410
31323350
31323304
31323270
31323247
31323230
31323218
31323207
31323192
31323169
31323132
31323074
31322990
31322873
31322721
31322538
31322334
31322120
31321906
31321699
31321506
31321332
31321181
31342303
31342190
31342095
31342018
31341955
31341907
31341872
31341846
31341828
31341815
31341802
31341785
31341760
31341721
31341660
31341572
31341452
31341295
31341109
31340901
31340684
31340467
31340258
31340064
31339889
31339737
31360923
31360806
31360708
31360628
31360563
31360514
31360476
31360449
31360430
31360415
31360400
31360382
31360355
31360313
31360249
31360158
31360033
31359873
31359682
31359470
31359249
31359030
31358819
31358622
31358444
31358286
31379539
31379422
31379323
31379241
31379174
31379123
31379084
31379055
31379034
31379018
31379002
31378981
31378952
31378907
31378841
31378746
31378617
31378452
31378257
31378042
31377817
31377595
31377381
31377183
31377004
31376845
31398162
31398042
31397940
31397856
31397788
31397735
31397694
31397664
31397642
31397623
31397606
31397584
31397552
31397505
31397436
31397337
31397204
31397034
31396834
31396615
31396387
31396162
31395946
31395747
31395567
31395410
31416783
31416663
31416560
31416474
31416405
31416350
31416307
31416276
31416252
31416232
31416213
31416189
31416155
31416105
31416032
31415930
31415793
31415618
31415414
31415190
31414959
31414731
31414513
31414312
31414132
31413974
31435411
31435288
31435184
31435096
31435024
31434967
31434923
31434890
31434865
31434843
31434822
31434796
31434760
31434708
31434632
31434526
31434383
31434204
31433995
31433767
31433532
31433302
31433082
31432881
31432700
31432542
31454039
31453917
31453810
31453720
31453647
31453588
31453542
31453507
31453480
31453457
31453434
31453406
31453368
31453312
31453233
31453123
31452976
31452791
31452577
31452345
31452108
31451874
31451653
31451451
31451270
31451117
31472689
31472554
31472441
31472348
31472272
31472211
31472164
31472127
31472098
31472073
31472048
31472018
31471978
31471919
31471836
31471722
31471570
31471380
31471161
31470925
31470684
31470448
31470226
31470022
31469841
31469686
31491321
31491189
31491075
31490979
31490900
31490837
31490788
31490749
31490718
31490692
31490665
31490633
31490589
31490528
31490442
31490323
31490165
31489970
31489747
31489507
31489262
31489024
31488799
31488594
31488412
31488257
31509968
31509829
31509711
31509612
31509531
31509465
31509414
31509373
31509341
31509313
31509284
31509249
31509203
31509139
31509048
31508925
31508762
31508562
31508333
31508089
31507841
31507600
31507374
31507168
31506986
31506831
31528612
31528471
31528349
31528247
31528163
31528096
31528042
31528000
31527965
31527935
31527904
31527868
31527819
31527751
31527657
31527528
31527360
31527154
31526921
31526672
31526421
31526177
31525950
31525743
31525561
31525406
31547261
31547115
31546990
31546885
31546798
31546728
31546672
31546628
31546592
31546559
31546527
31546488
31546436
31546365
31546266
31546133
31545959
31545747
31545509
31545256
31545001
31544756
31544526
31544319
31544137
31543983
31565913
31565761
31565632
31565523
31565434
31565362
31565304
31565258
31565219
31565185
31565150
31565109
31565055
31564980
31564877
31564738
31564559
31564341
31564098
31563840
31563583
31563334
31563104
31562895
31562714
31562561
31584563
31584407
31584274
31584163
31584071
31583996
31583937
31583889
31583849
31583813
31583776
31583732
31583675
31583596
31583489
31583345
31583160
31582936
31582687
31582425
31582164
31581914
31581681
31581473
31581292
31581141
31603211
31603052
31602916
31602803
31602709
31602632
31602571
31602521
31602479
31602442
31602403
31602356
31602296
31602214
31602102
31601952
31601761
31601531
31601277
31601011
31600746
31600493
31600259
31600050
31599869
31599720
31621860
31621696
31621558
31621443
31621347
31621269
31621206
31621154
31621111
31621072
31621030
31620982
31620918
31620832
31620715
31620560
31620362
31620126
31619867
31619596
31619328
31619072
31618837
31618627
31618447
31618299
31640492
31640336
31640200
31640084
31639986
31639907
31639842
31639789
31639744
31639703
31639660
31639608
31639542
31639451
31639330
31639169
31638964
31638722
31638456
31638181
31637909
31637651
31637415
31637204
31637024
31636876
31659131
31658979
31658843
31658725
31658627
31658546
31658479
31658425
31658378
31658335
31658290
31658236
31658166
31658072
31657945
31657778
31657567
31657317
31657046
31656766
31656491
31656230
31655992
31655780
31655599
31655452
31677790
31677629
31677489
31677369
31677269
31677186
31677118
31677062
31677014
31676969
31676921
31676865
31676792
31676693
31676561
31676387
31676169
31675913
31675637
31675351
31675072
31674809
31674568
31674355
31674175
31674028
31696452
31696283
31696139
31696016
31695913
31695827
31695758
31695700
31695650
31695604
31695554
31695495
31695418
31695315
31695178
31694998
31694772
31694510
31694227
31693936
31693653
31693387
31693144
31692930
31692749
31692604
31715112
31714939
31714790
31714663
31714558
31714470
31714399
31714339
31714288
31714239
31714188
31714126
31714045
31713938
31713795
31713608
31713375
31713106
31712817
31712521
31712234
31711964
31711719
31711504
31711323
31711178
31733773
31733595
31733442
31733313
31733204
31733115
31733041
31732980
31732927
31732876
31732822
31732757
31732674
31732562
31732413
31732219
31731979
31731703
31731407
31731106
31730814
31730541
31730294
31730077
31729894
31729748
31752434
31752252
31752096
31751963
31751852
31751760
31751684
31751621
31751566
31751514
31751457
31751390
31751302
31751186
31751031
31750830
31750582
31750299
31749997
31749690
31749394
31749118
31748868
31748650
31748466
31748319
31771095
31770910
31770749
31770613
31770500
31770406
31770328
31770263
31770206
31770152
31770093
31770023
31769932
31769811
31769650
31769441
31769185
31768895
31768586
31768274
31767974
31767694
31767442
31767223
31767039
31766894
31789757
31789567
31789404
31789265
31789148
31789052
31788972
31788906
31788847
31788791
31788730
31788656
31788561
31788435
31788268
31788052
31787788
31787490
31787174
31786857
31786552
31786269
31786015
31785795
31785613
31785470
31808418
31808225
31808059
31807917
31807798
31807699
31807617
31807549
31807488
31807430
31807366
31807290
31807191
31807060
31806886
31806662
31806389
31806084
31805761
31805439
31805129
31804843
31804588
31804367
31804186
31804046
31827081
31826884
31826714
31826569
31826447
31826346
31826262
31826192
31826129
31826069
31826003
31825923
31825820
31825683
31825503
31825271
31824989
31824677
31824347
31824019
31823705
31823416
31823158
31822938
31822757
31822619
31845747
31845545
31845370
31845221
31845097
31844993
31844907
31844835
31844770
31844707
31844639
31844556
31844448
31844306
31844118
31843877
31843587
31843266
31842930
31842596
31842278
31841986
31841727
31841506
31841326
31841191
31864413
31864205
31864026
31863874
31863746
31863640
31863552
31863478
31863411
31863346
31863274
31863188
31863076
31862927
31862732
31862483
31862184
31861855
31861511
31861171
31860848
31860553
31860293
31860072
31859893
31859760
31883078
31882866
31882682
31882526
31882396
31882287
31882197
31882120
31882051
31881983
31881909
31881819
31881702
31881547
31881343
31881084
31880775
31880438
31880087
31879742
31879415
31879117
31878855
31878634
31878457
31878326
31901743
31901525
31901338
31901178
31901044
31900933
31900840
31900761
31900690
31900620
31900543
31900448
31900326
31900164
31899952
31899684
31899365
31899018
31898660
31898309
31897978
31897678
31897415
31897194
31897018
31896889
31920408
31920185
31919992
31919829
31919692
31919578
31919483
31919402
31919328
31919256
31919175
31919076
31918949
31918779
31918558
31918279
31917949
31917594
31917228
31916872
31916538
31916235
31915971
31915750
31915576
31915450
31939071
31938843
31938646
31938479
31938339
31938222
31938124
31938041
31937965
31937890
31937806
31937703
31937569
31937392
31937160
31936870
31936533
31936168
31935793
31935431
31935093
31934788
31934523
31934303
31934131
31934008
31957732
31957499
31957298
31957127
31956984
31956864
31956764
31956679
31956601
31956522
31956435
31956327
31956186
31956001
31955759
31955456
31955105
31954732
31954352
31953986
31953644
31953337
31953071
31952852
31952681
31952562
31976392
31976154
31975949
31975774
31975628
31975505
31975403
31975315
31975234
31975153
31975062
31974949
31974802
31974607
31974353
31974036
31973672
31973289
31972907
31972536
31972191
31971881
31971615
31971396
31971229
31971113
31995050
31994807
31994598
31994419
31994269
31994144
31994039
31993949
31993866
31993782
31993687
31993569
31993415
31993211
31992946
31992616
31992239
31991850
31991460
31991083
31990733
31990421
31990154
31989936
31989772
31989661
32013707
32013459
32013245
32013062
32012909
32012781
32012674
32012581
32012495
32012408
32012309
32012186
32012025
32011812
32011535
32011192
32010806
32010409
32010010
32009626
32009271
32008956
32008688
32008471
32008310
32008206
32032362
32032109
32031890
32031703
32031547
32031416
32031306
32031211
32031123
32031032
32030930
32030801
32030633
32030411
32030123
32029769
32029374
32028963
32028555
32028164
32027804
32027486
32027217
32027000
32026841
32026740
32051016
32050757
32050533
32050342
32050182
32050048
32049936
32049838
32049747
32049654
32049547
32049413
32049238
32049006
32048705
32048338
32047932
32047512
32047095
32046697
32046332
32046011
32045739
32045523
32045364
32045265
32069669
32069403
32069174
32068978
32068815
32068678
32068562
32068462
32068369
32068272
32068161
32068022
32067838
32067596
32067283
32066906
32066486
32066055
32065629
32065224
32064854
32064530
32064257
32064041
32063883
32063783
32088321
32088047
32087812
32087612
32087444
32087304
32087186
32087083
32086987
32086887
32086772
32086626
32086434
32086180
32085853
32085461
32085031
32084591
32084157
32083746
32083371
32083043
32082769
32082554
32082398
32082304
32106969
32106688
32106447
32106242
32106071
32105927
32105807
32105701
32105602
32105499
32105378
32105226
32105025
32104758
32104417
32104015
32103571
32103120
32102678
32102261
32101881
32101551
32101277
32101063
32100911
32100819
32125612
32125324
32125078
32124869
32124693
32124547
32124423
32124315
32124213
32124106
32123981
32123821
32123610
32123330
32122971
32122550
32122099
32121642
32121193
32120769
32120386
32120053
32119779
32119567
32119421
32119343
32144247
32143956
32143704
32143491
32143312
32143162
32143036
32142925
32142820
32142709
32142579
32142412
32142190
32141896
32141521
32141077
32140622
32140157
32139701
32139272
32138884
32138549
32138275
32138066
32137923
32137845
32162882
32162584
32162327
32162110
32161927
32161774
32161645
32161531
32161423
32161308
32161172
32160998
32160766
32160458
32160067
32159617
32159144
32158668
32158204
32157768
32157376
32157039
32156766
32156560
32156422
32156353
32181514
32181209
32180947
32180724
32180537
32180381
32180249
32180132
32180021
32179903
32179761
32179579
32179336
32179014
32178609
32178143
32177659
32177172
32176698
32176256
32175860
32175523
32175251
32175048
32174917
32174856
32200142
32199830
32199562
32199334
32199143
32198983
32198848
32198729
32198615
32198492
32198345
32198154
32197899
32197561
32197138
32196659
32196163
32195666
32195185
32194736
32194337
32193999
32193729
32193532
32193407
32193356
32218766
32218447
32218173
32217939
32217744
32217581
32217443
32217321
32217203
32217076
32216923
32216723
32216455
32216100
32215659
32215164
32214656
32214150
32213662
32213208
32212806
32212468
32212201
32212008
32211892
32211852
32237390
32237062
32236780
32236541
32236340
32236173
32236032
32235907
32235786
32235654
32235494
32235284
32235002
32234629
32234168
32233658
32233141
32232626
32232130
32231670
32231266
32230928
32230664
32230478
32230370
32230341
32256015
32255674
32255382
32255137
32254931
32254760
32254615
32254487
32254362
32254225
32254058
32253837
32253540
32253147
32252670
32252149
32251617
32251091
32250587
32250122
32249715
32249378
32249119
32248939
32248841
32248823
32274629
32274278
32273979
32273727
32273517
32273342
32273193
32273061
32272932
32272789
32272614
32272381
32272068
32271654
32271155
32270618
32270077
32269543
32269032
32268563
32268155
32267819
32267564
32267392
32267304
32267298
32293231
32292876
32292570
32292312
32292096
32291916
32291764
32291628
32291494
32291345
32291161
32290916
32290583
32290147
32289628
32289073
32288523
32287983
32287466
32286993
32286583
32286250
32286000
32285836
32285758
32285765
32311832
32311469
32311155
32310891
32310669
32310485
32310328
32310188
32310049
32309893
32309698
32309439
32309087
32308628
32308087
32307522
32306959
32306410
32305887
32305410
32304999
32304669
32304425
32304270
32304203
32304223
32330433
32330058
32329735
32329463
32329236
32329046