/*--------------------------------*- C++ -*----------------------------------*\
  =========                 |
  \\      /  F ield         | OpenFOAM: The Open Source CFD Toolbox
   \\    /   O peration     | Website:  https://openfoam.org
    \\  /    A nd           | Version:  7
     \\/     M anipulation  |
\*---------------------------------------------------------------------------*/
FoamFile
{
    version     2.0;
    format      ascii;
    class       volScalarField;
    location    "5266512000";
    object      rho;
}
// * * * * * * * * * * * * * * * * * * * * * * * * * * * * * * * * * * * * * //

dimensions      [1 -3 0 0 0 0 0];

internalField   nonuniform List<scalar> 
19846
(
1009.4633
1002.7063
969.59475
937.8052
909.12255
883.28563
859.83094
838.17844
817.67571
797.70203
777.77222
757.6032
737.14842
716.62505
696.55814
677.84344
661.78099
649.97132
643.94447
644.66885
651.93756
664.72801
681.45526
700.5644
720.86072
741.58636
994.95139
981.76982
957.17636
930.07541
903.86551
879.57613
857.23488
836.40928
816.49078
796.89103
777.16565
757.07514
736.61071
716.01764
695.84094
676.99338
660.79535
648.87442
642.79128
643.51899
650.87704
663.79076
680.65615
699.87887
720.19785
740.77555
979.82719
964.68462
943.78671
920.48049
897.18266
875.01977
854.20357
834.43254
815.20344
796.02381
776.53245
756.55407
736.12401
715.51542
695.29082
676.3763
660.10631
648.12596
642.01492
642.76011
650.1634
663.15062
680.0969
699.393
719.77092
740.36452
966.14704
950.62212
931.77875
911.241
890.50287
870.39043
851.08583
832.35802
813.80704
795.04349
775.79147
755.93729
735.55633
714.94614
694.68475
675.71083
659.37354
647.33717
641.20215
641.97002
649.42432
662.48887
679.51648
698.88079
719.30173
739.9089
954.26528
938.97255
921.61595
903.15395
884.48424
866.11473
848.13015
830.32732
812.38655
794.00608
774.98288
755.25521
734.93182
714.33074
694.04346
675.02038
658.62496
646.54059
640.3878
641.18251
648.68923
661.82918
678.93332
698.35832
718.81002
739.39482
944.15531
929.36286
913.23512
896.38631
879.3424
862.37091
845.4646
828.43048
811.00701
792.95976
774.1424
754.53364
734.26832
713.68064
693.37324
674.30715
657.85965
645.73314
639.56775
640.39365
647.95552
661.17115
678.35002
697.83337
718.31726
738.90926
935.65028
921.48064
906.41609
890.8497
875.07206
859.19032
843.1325
826.71225
809.71007
791.94086
773.30005
753.79625
733.58359
713.00853
692.68268
673.57651
657.08061
644.91628
638.74269
639.60404
647.22444
660.51733
677.77079
697.31169
717.82579
738.41352
928.54691
915.05228
900.91336
886.37413
871.57813
856.53341
841.12946
825.18761
808.51928
790.97476
772.47936
753.06295
732.89347
712.32626
691.98
672.83365
656.2906
644.07478
637.91269
638.81373
646.49681
659.86994
677.19987
696.79942
717.34344
737.93122
922.71793
909.86237
896.50347
882.78018
868.74128
854.33466
839.42908
823.85459
807.44564
790.07787
771.6976
752.34954
732.21117
711.64413
691.27265
672.08338
655.49223
643.24171
637.07792
638.02275
645.77348
659.23124
676.64172
696.30385
716.88246
737.46334
917.97173
905.69285
892.97959
879.90132
866.44593
852.52511
837.99776
822.70278
806.49215
789.25975
770.96665
751.66781
731.54716
710.97066
690.56699
671.3299
654.68778
642.40184
636.23845
637.23108
645.05515
658.60327
676.1002
695.8307
716.45276
737.04186
914.1469
902.34938
890.16257
877.59533
864.59209
851.04251
836.80209
821.71834
805.65688
788.52493
770.29399
751.02602
730.90921
710.3125
689.86814
670.57673
653.87922
641.55603
635.39428
636.43868
644.3265
657.98783
675.57836
695.38414
716.05742
736.6742
910.9883
899.64201
887.90297
875.74803
863.09887
849.83468
835.812
820.88666
804.93509
787.87445
769.68368
750.42948
730.30279
709.67453
689.18003
669.82658
653.06806
640.70475
634.54531
635.64548
643.61955
657.38629
675.07871
694.96829
715.69982
736.35602
908.45389
897.47393
886.09899
874.27454
861.90354
848.85936
835.00156
820.19359
804.32052
787.30697
769.13722
749.88114
729.73136
709.06009
688.50544
669.08143
652.25535
639.84827
633.69143
634.85139
642.91893
656.7998
674.60332
694.58657
715.38518
736.07861
906.34919
895.72137
884.66216
873.10799
860.95686
848.08236
834.34864
819.62592
803.80616
786.81958
768.65426
749.38213
729.19676
708.47122
687.84617
668.34258
651.44179
638.98671
632.83244
634.05629
642.22501
656.22921
674.15355
694.24118
715.12014
735.84546
904.71534
894.34974
883.53983
872.19955
860.22025
847.47578
833.8343
819.17154
803.38476
786.40837
768.23313
748.93222
728.69958
707.90886
687.2032
667.61075
650.62772
638.12003
631.96813
633.25999
641.53785
655.67489
673.72982
693.9319
714.90563
735.69533
903.4213
893.28417
882.67596
871.50597
859.66128
847.01619
833.44223
818.81943
803.04911
786.06886
767.87129
748.53018
728.23946
707.37313
686.5768
666.88617
649.81318
637.24806
631.09826
632.46232
640.85744
655.13697
673.33211
693.65748
714.73592
735.61182
902.38036
892.45312
882.02006
870.99059
859.25309
846.68407
833.15842
818.55966
802.79227
785.79629
767.56564
748.1741
727.81532
706.86349
685.96673
666.16868
648.99797
636.37051
630.22255
631.66311
640.18368
654.61542
672.96029
693.41716
714.60728
735.58732
901.59889
891.83441
881.54254
870.62696
858.97467
846.46348
832.97096
818.38339
802.60763
785.58583
767.31273
747.86159
727.42556
706.3789
685.37232
665.45779
648.1817
635.48701
629.34073
630.86218
639.51648
654.11016
672.61422
693.21094
714.5197
735.60004
901.00205
891.38458
881.21399
870.39287
858.80892
846.34108
832.86928
818.28253
802.48898
785.43276
767.10898
747.59
727.06826
705.91801
684.79259
664.75277
647.36381
634.59709
628.45249
630.05941
638.85573
653.62094
672.29333
693.03788
714.47486
735.6479
900.57899
891.08421
881.01465
870.27053
858.74
846.30245
832.84045
818.24747
802.42999
785.33269
766.95076
747.35652
726.74127
705.4792
684.22634
664.0527
646.5436
633.70021
627.55755
629.25468
638.20138
653.14749
671.99655
692.89445
714.46506
735.78197
900.30531
890.91145
880.92554
870.23849
858.74093
846.32129
832.86341
818.25837
802.42122
785.2818
766.8345
747.1583
726.44235
705.06072
683.67222
663.35652
645.72023
632.79577
626.65561
628.44795
637.55355
652.68992
671.72356
692.77855
714.47509
735.92318
900.12591
890.83558
880.91838
870.28745
858.8308
846.43057
832.97092
818.34441
802.46234
785.27511
766.75677
746.99254
726.1692
704.66073
683.12879
662.66316
644.8779
631.88315
625.7464
627.63922
636.9126
652.24893
671.4757
692.69439
714.50603
736.0462
900.05173
890.84205
880.99827
870.41758
858.98956
846.59872
833.13051
818.47863
802.55431
785.29851
766.71482
746.85649
725.91952
704.27737
682.59453
661.97138
644.04529
630.96181
624.82969
626.82853
636.27908
651.82568
671.25475
692.64583
714.57861
736.17067
900.07969
890.94677
881.15987
870.61762
859.20979
846.82165
833.33958
818.65798
802.68851
785.37342
766.70652
746.74742
725.69105
703.90878
682.06794
661.27998
643.20668
630.03124
623.90526
626.01592
635.65358
651.42166
671.06403
692.63888
714.70841
736.30651
900.21128
891.13461
881.39263
870.88005
859.48547
847.09442
833.59381
818.87828
802.85912
785.47723
766.72217
746.66263
725.48165
703.55309
681.5476
660.58792
642.36146
629.09093
622.97295
625.20142
635.03639
651.03767
670.90591
692.66923
714.93048
736.76357
900.39911
891.38586
881.6862
871.19777
859.81087
847.4121
833.88889
819.13585
803.06368
785.61212
766.76906
746.60058
725.28931
703.20855
681.03216
659.89417
641.50889
628.14046
622.03267
624.38499
634.42729
650.67286
670.77953
692.75832
715.20016
737.23646
900.66043
891.70263
882.03691
871.56552
860.1807
847.76989
834.2206
819.42698
803.29874
785.77423
766.83968
746.55826
725.112
702.87358
680.52027
659.19777
640.64835
627.17952
621.08435
623.56658
633.8256
650.32492
670.67784
692.8726
715.49455
737.7171
901.02256
892.08639
882.43983
871.97728
860.58947
848.16307
834.5849
819.74814
803.56121
785.96081
766.93129
746.53349
724.94783
702.54665
680.01071
658.49783
639.77925
626.20784
620.12803
622.74615
633.23057
649.9916
670.59644
693.01069
715.80708
738.16899
901.4256
892.51536
882.88252
872.42484
861.03128
848.5871
834.97803
820.09608
803.84821
786.16936
767.04184
746.52431
724.79502
702.2263
679.5023
657.7935
638.90105
625.22519
619.16373
621.92379
632.64178
649.67127
670.53122
693.16332
716.1336
738.5605
901.83795
892.96373
883.3516
872.90071
861.50112
849.03806
835.39667
820.46787
804.15714
786.39751
767.16919
746.52885
724.6519
701.91113
678.99393
657.08396
638.0132
624.2313
618.19153
621.0997
632.05935
649.36395
670.48162
693.31824
716.40255
738.78388
902.29132
893.4435
883.84833
873.40286
861.99614
849.51303
835.83803
820.86094
804.48562
786.64311
767.31134
746.5451
724.51688
701.59984
678.48454
656.36838
637.11515
623.22592
617.21152
620.27417
631.48394
649.07192
670.45768
693.53261
716.85126
739.5259
902.77307
893.94973
884.37091
873.92936
862.51398
850.00952
836.29971
821.27303
804.83155
786.90423
767.46655
746.56987
724.38853
701.29117
677.97308
655.64595
636.20633
622.20876
616.22382
619.44749
630.9157
648.79415
670.45232
693.75731
717.26629
740.1269
903.27889
894.48474
884.91913
874.47836
863.05231
850.52523
836.77959
821.70215
805.19306
787.17912
767.63347
746.60515
724.26577
700.98394
677.45855
654.91588
635.28615
621.17954
615.22854
618.62
630.35494
648.53035
670.46465
693.99725
717.6799
740.67591
903.82079
895.04774
885.48923
875.04621
863.60827
851.05797
837.2758
822.1466
805.56852
787.46617
767.81031
746.64757
724.14705
700.67699
676.93996
654.17737
634.35401
620.13795
614.22582
617.79213
629.80227
648.28123
670.49487
694.25709
718.10969
741.20843
904.39663
895.62829
886.07327
875.62834
864.17933
851.60605
837.78693
822.605
805.95652
787.76398
767.99573
746.69589
724.03118
700.36923
676.41636
653.4296
633.40928
619.08365
613.21581
616.96432
629.25858
648.04833
670.53979
694.54253
718.57466
741.75303
904.95577
896.20515
886.66368
876.2224
864.76464
852.16878
838.31209
823.07626
806.35587
788.07132
768.18852
746.74898
723.91707
700.05963
675.88684
652.67181
632.45136
618.01629
612.19864
616.13707
628.72476
647.83365
670.61773
694.8547
719.06977
742.36044
905.48319
896.78216
887.26605
876.83201
865.36583
852.74646
838.85079
823.55948
806.76549
788.38706
768.38754
746.80575
723.80364
699.74721
675.35051
651.90322
631.47962
616.93555
611.17445
615.31079
628.20157
647.63753
670.71762
695.20021
719.61471
743.07215
906.08267
897.40045
887.89672
877.46363
865.98509
853.33935
839.40246
824.05374
807.18431
788.71007
768.59168
746.86512
723.68986
699.43101
674.80651
651.12311
630.49346
615.84109
610.14339
614.48586
627.68943
647.46061
670.84436
695.58019
720.20997
743.90619
906.72447
898.05561
888.55704
878.11803
866.62215
853.9466
839.966
824.55788
807.61119
789.03925
768.79985
746.92606
723.57476
699.11009
674.25398
650.33073
629.4923
614.73259
609.10559
613.66253
627.18832
647.30169
670.99303
695.98412
720.82456
744.75036
907.43705
898.75522
889.24501
878.79203
867.27439
854.56618
840.53977
825.07051
808.04487
789.37343
769.01097
746.98754
723.45735
698.78356
673.69211
649.52539
628.47552
613.60972
608.06121
612.8411
626.69821
647.15961
671.15966
696.40023
721.42126
745.37307
908.11202
899.44952
889.94167
879.47755
867.93755
855.19539
841.12185
825.5901
808.48407
789.71146
769.22396
747.04854
723.33669
698.45051
673.12007
648.70634
627.44252
612.47213
607.0104
612.02192
626.21941
647.03455
671.34518
696.83613
722.05863
746.18094
908.83768
900.16794
890.65154
880.17268
868.60892
855.83192
841.71039
826.11517
808.92751
790.05219
769.43777
747.10808
723.21184
698.11007
672.53704
647.87286
626.39264
611.31945
605.95334
611.20543
625.75257
646.92724
671.54988
697.28741
722.70051
747.00032
909.54945
900.88563
891.36487
880.87256
869.28546
856.47363
842.30376
826.64435
809.374
790.39455
769.65141
747.16523
723.08193
697.76139
671.94225
647.02416
625.32519
610.1513
604.89021
610.39217
625.29867
646.83928
671.77641
697.75823
723.34765
747.79552
910.25197
901.59971
892.07825
881.5746
869.96527
857.11904
842.90071
827.17653
809.82251
790.73757
769.86394
747.21909
722.94611
697.40365
671.33498
646.14655
624.23953
608.96737
603.82124
609.58273
624.85884
646.77278
672.0291
698.25784
724.01503
748.55002
910.95588
902.31382
892.79238
882.27845
870.6477
857.76737
843.5004
827.71083
810.27216
791.08039
770.07453
747.2688
722.80356
697.036
670.71442
645.26502
623.13521
607.76737
602.74668
608.77765
624.43402
646.72944
672.31224
698.79949
724.74961
749.39489
911.67112
903.03226
893.50887
882.9847
871.33279
858.41832
844.10228
828.24656
810.72218
791.42223
770.28243
747.31355
722.65354
696.65776
670.07977
644.36596
622.01178
606.55111
601.66685
607.97737
624.02449
646.70913
672.62459
699.37909
725.54413
750.36831
912.38011
903.7496
894.22718
883.69388
872.0209
859.07183
844.70595
828.78315
811.17193
791.7624
770.48696
747.35258
722.4954
696.26824
669.43043
643.44901
620.86882
605.31845
600.58208
607.18219
623.62999
646.69772
672.96136
699.98371
726.35966
751.35817
913.0936
904.47186
894.95066
884.40768
872.7126
859.7278
845.311
829.32002
811.62075
792.10023
770.68749
747.38556
722.32849
695.86681
668.7658
642.51361
619.70594
604.06928
599.49273
606.39243
623.25008
646.71839
673.31803
700.60624
727.18852
752.3739
913.81174
905.20311
895.6821
885.12717
873.40792
860.38578
845.91681
829.85654
812.06803
792.43507
770.88331
747.41385
722.15212
695.45282
668.08526
641.55922
618.5228
602.80352
598.3992
605.60845
622.88485
646.75704
673.69167
701.23887
728.00699
753.24689
914.55542
905.95014
896.42268
885.85167
874.10575
861.04474
846.52252
830.392
812.51315
792.76634
771.0735
747.43148
721.96534
695.02566
667.38823
640.58533
617.31902
601.52105
597.30185
604.8307
622.53473
646.81024
674.08348
701.88579
728.84185
754.23629
915.31521
906.70549
897.16719
886.57771
874.80384
861.70324
847.12718
830.92568
812.9555
793.09352
771.25803
747.44225
721.76804
694.58477
666.67411
639.59137
616.09423
600.22176
596.20105
604.05971
622.20082
646.88971
674.49684
702.55338
729.69683
755.22647
916.06788
907.45619
897.90842
887.30125
875.49993
862.35995
847.72994
831.45696
813.39455
793.41608
771.43617
747.44436
721.55946
694.12956
665.94228
638.57678
614.84803
598.90552
595.09713
603.29602
621.88339
646.98849
674.93273
703.24429
730.57513
756.25483
916.80619
908.19706
898.643
888.02024
876.19286
863.01422
848.33036
831.98544
813.82986
793.73356
771.60746
747.4374
721.33905
693.65944
665.19212
637.54095
613.57999
597.57224
593.99041
602.54018
621.58338
647.1216
675.3926
703.96095
731.47929
757.30245
917.53434
908.93019
899.37144
888.7349
876.88282
863.66613
848.92835
832.51087
814.26111
794.04557
771.77146
747.42087
721.10625
693.17384
664.42299
636.48327
612.28973
596.22186
592.88121
601.79265
621.30128
647.26501
675.87641
704.70345
732.4143
758.38712
918.25724
909.6573
900.09532
889.44685
877.57102
864.31632
849.52407
833.03316
814.68802
794.35174
771.92773
747.39429
720.86057
692.67211
663.63424
635.40312
610.97686
594.85445
591.76982
601.05389
621.03716
647.42991
676.38176
705.4657
733.3648
759.42859
918.99241
910.38289
900.81863
890.15933
878.25933
864.96556
850.11768
833.55214
815.11033
794.65173
772.07587
747.35719
720.6015
692.15364
662.82521
634.29986
609.64107
593.47017
590.65654
600.32447
620.79149
647.6162
676.90745
706.24459
734.33038
760.52798
919.65433
911.09881
901.54748
890.87639
878.94913
865.614
850.70893
834.06749
815.52766
794.94514
772.21546
747.30909
720.32851
691.61782
661.99523
633.17283
608.28204
592.06937
589.54169
599.60505
620.56483
647.82419
677.45412
707.04237
735.31403
761.66809
920.5345
911.90074
902.3031
891.60018
879.63927
866.26049
851.29704
834.57869
815.93961
795.23159
772.34607
747.2495
720.04105
691.06403
661.14359
632.02138
606.89954
590.65262
588.42555
598.89648
620.3579
648.05425
678.02209
707.85938
736.31149
762.80747
921.21788
912.62138
903.02992
892.31295
880.3238
866.90281
851.88103
835.08517
816.34575
795.51068
772.46728
747.17795
719.7386
690.49164
660.26961
630.84485
605.4934
589.22074
587.30835
598.19977
620.17152
648.30671
678.61149
708.69613
737.32551
763.94145
921.94298
913.34721
903.75153
893.01986
881.00339
867.54072
852.46055
835.58658
816.74575
795.78206
772.57868
747.09394
719.42062
689.90001
659.37258
629.64257
604.0635
587.77488
586.19018
597.51623
620.00659
648.58188
679.22221
709.55195
738.35671
765.05108
922.66529
914.07214
904.4704
893.72293
881.67887
868.17443
853.03556
836.08277
817.13937
796.04541
772.67991
746.99704
719.08654
689.28849
658.45179
628.41389
602.60976
586.31656
585.07095
596.84744
619.86408
648.88017
679.85456
710.42734
739.4137
766.28461
923.38608
914.79464
905.18598
894.42233
882.35057
868.80416
853.60611
836.57365
817.52645
796.30047
772.77061
746.88683
718.73579
688.65642
657.50653
627.15815
601.13211
584.84768
583.95021
596.19543
619.74504
649.20195
680.50853
711.32067
740.47861
767.50702
924.10694
915.51295
905.89724
895.11795
883.01872
869.43015
854.17232
837.05922
817.90684
796.547
772.85041
746.76289
718.36782
688.00315
656.53607
625.87471
599.6304
583.37054
582.82706
595.5627
619.65054
649.54778
681.1842
712.23089
741.54503
768.66497
924.81039
916.22233
906.60381
895.81044
883.68393
870.05276
854.73433
837.53948
818.28044
796.7848
772.91893
746.62479
717.98208
687.328
655.53972
624.56289
598.10441
581.88766
581.70031
594.95217
619.58169
649.91885
681.88334
713.1616
742.62577
769.80214
925.51144
916.93132
907.31009
896.50186
884.3471
870.67231
855.29225
838.01439
818.64713
797.01368
772.97577
746.47209
717.57799
686.63029
654.51674
623.22201
596.55371
580.40111
580.56969
594.36638
619.53945
650.31682
682.60905
714.11927
743.73949
770.99085
926.22561
917.64785
908.01908
897.19311
885.00838
871.2888
855.846
838.48387
819.00677
797.23347
773.02052
746.30438
717.15496
685.9093
653.46638
621.85137
594.97773
578.90932
579.44203
593.80398
619.52446
650.74311
683.36378
715.10817
744.89399
772.30117
926.93936
918.36406
908.7271
897.88243
885.66694
871.90184
856.39541
838.94778
819.35919
797.44403
773.05335
746.12127
716.71234
685.16426
652.38785
620.45018
593.37595
577.41018
578.32406
593.26288
619.5371
651.19816
684.14794
716.12714
746.06865
773.59283
927.65588
919.07878
909.43206
898.5684
886.32208
872.51115
856.94038
839.40604
819.7042
797.64501
773.07751
745.92215
716.24944
684.39438
651.28028
619.01753
591.74779
575.90441
577.21566
592.74376
619.57673
651.6815
684.96121
717.17916
747.26933
774.73808
928.37344
919.7891
910.13221
899.25033
886.97369
873.11682
857.48098
839.85865
820.04165
797.83544
773.08334
745.70575
715.76554
683.59876
650.14268
617.55235
590.09241
574.39218
576.11733
592.24681
619.63919
652.19125
685.80063
718.27255
748.61935
776.39704
929.07809
920.4899
910.82669
899.92878
887.62245
873.71928
858.01742
840.30565
820.37157
798.01602
773.07762
745.47242
715.25996
682.77645
648.97389
616.05333
588.40879
572.87359
575.02934
591.77236
619.72952
652.72362
686.64901
719.33192
749.80045
777.67194
929.74537
921.17934
911.51865
900.60625
888.26962
874.31906
858.54986
840.74704
820.69378
798.18618
773.05806
745.22123
714.73184
681.92645
647.76199
614.51902
586.69575
571.34874
573.95198
591.32058
619.8494
653.28078
687.51819
720.41145
751.01754
778.98793
930.46145
921.8919
912.21933
901.28589
888.91595
874.91628
859.0783
841.18272
821.00808
798.3456
773.02424
744.95149
714.18023
681.04759
646.52677
612.94805
584.95211
569.81789
572.88569
590.89194
619.99509
653.86484
688.41213
721.51283
752.25264
780.30059
931.17712
922.60493
912.91936
901.96382
889.55984
875.51035
859.60253
841.61258
821.31429
798.49395
772.97561
744.66244
713.60408
680.13848
645.25579
611.33877
583.17675
568.2816
571.83119
590.48754
620.17024
654.47869
689.33482
722.64062
753.50827
781.66202
931.89177
923.30952
913.61258
902.63705
890.2002
876.10103
860.12257
842.0366
821.61223
798.63087
772.91161
744.35329
713.00238
679.19785
643.94778
609.68956
581.36878
566.74086
570.78954
590.10843
620.3759
655.12457
690.2903
723.80231
754.79113
782.97457
932.57452
923.99886
914.29801
903.30605
890.83777
876.68891
860.63875
842.45484
821.90174
798.75597
772.83165
744.02322
712.37401
678.22432
642.60108
607.9989
579.52769
565.19717
569.76217
589.75586
620.61331
655.80389
691.28097
725.00513
756.13555
784.44095
933.26004
924.68797
914.98266
903.97457
891.47468
877.27517
861.15158
842.86739
822.1826
798.86883
772.73507
743.67133
711.71783
677.21646
641.21407
606.2655
577.65341
563.65257
568.75094
589.43112
620.88313
656.51663
692.30483
726.24031
757.50294
785.85758
933.93465
925.37618
915.66985
904.64573
892.1129
877.86076
861.66137
843.27416
822.45449
798.96893
772.62116
743.2967
711.03263
676.17278
639.78519
604.48827
575.7463
562.10954
567.75802
589.13565
621.18597
657.26255
693.36049
727.50542
758.89792
787.28385
934.63721
926.08043
916.36693
905.32276
892.75373
878.44601
862.16797
843.67478
822.7169
799.05561
772.48915
742.89833
710.31714
675.09179
638.31292
602.66638
573.8072
560.571
566.7859
588.87112
621.52259
658.04176
694.44777
728.80152
760.33277
788.81569
935.3582
926.79896
917.07407
906.00545
893.39651
879.0301
862.6706
844.06854
822.96916
799.12808
772.33819
742.47518
709.57008
673.97199
636.79582
600.79923
571.83728
559.03995
565.83715
588.63936
621.89392
658.85441
695.56585
730.12476
761.78851
790.36562
936.109
927.53521
917.78873
906.69063
894.03879
879.6113
863.16801
844.45454
823.21053
799.1854
772.16745
742.02617
708.79009
672.81184
635.23249
598.88642
569.83809
557.51974
564.91448
588.44238
622.30118
659.70116
696.71482
731.47355
763.25378
791.82312
936.81731
928.25094
918.49548
907.37167
894.67717
880.18756
863.65883
844.83178
823.44033
799.22692
771.97614
741.55019
707.97582
671.60983
633.6216
596.92773
567.81129
556.01317
564.02027
588.28226
622.74589
660.58337
697.89724
732.85623
764.76909
793.45882
937.55271
928.97308
919.20043
908.04847
895.31023
880.75747
864.14196
845.19939
823.65791
799.25397
771.76345
741.0461
707.12588
670.36441
631.96188
594.92314
565.75913
554.5238
563.15708
588.16108
623.22952
661.50212
699.11377
734.27097
766.30901
795.0638
938.2629
929.68304
919.89775
908.71855
895.93638
881.31989
864.61655
845.55671
823.8623
799.26386
771.5281
740.51274
706.2389
669.07407
630.25213
592.87277
563.68358
553.05359
562.3267
588.08083
623.75346
662.45819
700.36444
735.71713
767.87762
796.6926
938.96173
930.38547
920.58764
909.38088
896.55456
881.87406
865.0822
845.90349
824.05317
799.25458
771.26931
739.94907
705.31351
667.73734
628.49124
590.77705
561.58829
551.60734
561.53187
588.04355
624.31902
663.45246
701.64946
737.1944
769.4756
798.34831
939.6562
931.08062
921.26872
910.03416
897.164
882.41975
865.539
846.23994
824.23085
799.22796
770.98674
739.3541
704.34835
666.35275
626.67816
588.63645
559.47544
550.18527
560.77378
588.05082
624.92749
664.48591
702.96925
738.70246
771.10316
800.03243
940.34391
931.76455
921.93875
910.67745
897.76475
882.95759
865.98773
846.56666
824.39551
799.18342
770.67972
738.72678
703.34209
664.9189
624.81194
586.45202
557.35201
548.79607
560.05669
588.10243
625.5803
665.55965
704.32435
740.24076
772.75894
801.7792
941.01679
932.43657
922.59795
911.31182
898.35851
883.48941
866.42992
846.88464
824.54757
799.12082
770.34762
738.06608
702.29333
663.43436
622.89161
584.22439
555.21845
547.43478
559.38114
588.18964
626.27945
666.67493
705.71564
741.80854
774.43065
803.51032
941.69593
933.10205
923.24928
911.94075
898.94885
884.01822
866.86767
847.19509
824.68747
799.03997
769.98978
737.37088
701.20065
661.89763
620.91604
581.95507
553.08862
546.1184
558.7552
588.34999
627.02795
667.83317
707.14509
743.40947
776.1286
805.23171
942.34553
933.75119
923.89615
912.57047
899.54113
884.54767
867.30316
847.49907
824.81551
798.94059
769.60539
736.63992
700.06243
660.30699
618.88363
579.64328
550.95301
544.82607
558.17362
588.55316
627.82493
669.03613
708.61491
745.04616
777.86016
807.01811
943.00943
934.41978
924.55899
913.21214
900.14134
885.08087
867.73785
847.79709
824.93156
798.82206
769.19342
735.87176
698.87686
658.66029
616.79205
577.28998
548.84045
543.5911
557.64791
588.81532
628.6736
670.28581
710.12767
746.72153
779.62269
808.82471
943.72408
935.12525
925.24646
913.8698
900.75118
885.61838
868.17172
848.0888
825.03502
798.6835
768.75261
735.0647
697.64172
656.95478
614.63781
574.89013
546.71333
542.35755
557.1643
589.13217
629.57455
671.58382
711.68562
748.43903
781.42171
810.6483
944.44255
935.84186
925.94612
914.53732
901.36738
886.15825
868.60347
848.37316
825.12485
798.52368
768.28142
734.21675
696.35437
655.18689
612.41649
572.44559
544.64194
541.19789
556.74161
589.50699
630.52846
672.93139
713.29039
750.19997
783.25687
812.49578
945.15663
936.55793
926.64833
915.20813
901.98573
886.69781
869.03134
848.64882
825.19968
798.3412
767.77809
733.32558
695.01161
653.35228
610.12269
569.94565
542.5229
539.98753
556.35028
589.93419
631.53434
674.32944
714.94406
752.00776
785.13236
814.37388
945.86688
937.27117
927.3494
915.87869
902.60344
887.23504
869.45381
848.91452
825.25802
798.13452
767.24064
732.38857
693.60975
651.44584
607.7514
567.39966
540.5304
538.88979
556.03235
590.41627
632.59112
675.77852
716.64882
753.86769
787.05842
816.25929
946.57574
937.98277
928.04912
916.54805
903.21938
887.76879
869.86982
849.16927
825.29858
797.90212
766.66689
731.40277
692.14472
649.45338
605.29752
564.78767
538.41084
537.64436
555.72539
590.94233
633.69617
677.2783
718.40558
755.78393
789.05914
818.26319
947.28686
938.69503
928.74864
917.21659
903.83342
888.29865
870.27864
849.41222
825.32269
797.64239
766.05444
730.36485
690.61224
647.38791
602.75821
562.13523
536.55964
536.60286
555.525
591.51958
634.84859
678.82761
720.21212
757.74951
791.11604
820.37973
948.00191
939.40898
929.44895
917.88506
904.44594
888.82454
870.67973
849.64197
825.32586
797.35296
765.40074
729.2713
689.00742
645.23488
600.12927
559.40267
534.40577
535.26155
555.29396
592.1314
636.04659
680.42523
722.06576
759.75677
793.20191
822.48436
948.71419
940.12377
930.15095
918.55443
905.05747
889.34651
871.07273
849.85778
825.30659
797.03209
764.70319
728.11852
687.32584
642.99039
597.40925
556.64402
532.74371
534.3596
555.19811
592.79806
637.29306
682.07122
723.96561
761.80423
795.31956
824.62419
949.43708
940.84589
930.85763
919.22598
905.6684
889.8644
871.4571
850.05896
825.26488
796.67809
763.95912
726.90284
685.56319
640.65043
594.59399
553.78698
530.43857
532.94933
555.03972
593.50156
638.58829
683.76669
725.91237
763.89199
797.46457
826.77601
950.17319
941.5764
931.56912
919.89942
906.2782
890.37755
871.83202
850.24442
825.19908
796.28889
763.16568
725.62058
683.71526
638.21089
591.68308
550.93026
529.03835
532.25349
555.04128
594.27051
639.93686
685.51403
727.90843
766.02386
799.6434
828.93523
950.90554
942.30713
932.2816
920.57273
906.8856
890.88493
872.19649
850.41298
825.10764
795.8624
762.32002
724.26811
681.77806
635.66809
588.67287
547.96192
526.49662
530.67491
554.93405
595.07381
641.34019
687.31619
729.95666
768.20368
801.86419
831.12613
951.63614
943.0372
932.9935
921.24451
907.48945
891.38557
872.54953
850.56349
824.989
795.39646
761.41925
722.84184
679.74753
633.01793
585.56522
545.02487
525.45504
530.22027
555.03307
595.96716
642.8074
689.17725
732.06012
770.4345
804.13177
833.35989
952.37128
943.76882
933.70506
921.91422
908.08902
891.87868
872.89028
850.69486
824.84162
794.88891
760.46045
721.33816
677.61961
630.25722
582.36166
542.00625
522.64732
528.75443
555.0671
596.91581
644.34134
691.10083
734.22161
772.71837
806.44793
835.6407
953.10919
944.50082
934.41537
922.58113
908.68368
892.36368
873.21801
850.80606
824.664
794.33759
759.44067
719.75331
675.38994
627.38206
579.06313
539.00336
522.01191
528.57622
555.47713
597.9756
645.94668
693.09005
736.44353
775.05656
808.81206
837.96495
953.84362
945.23011
935.12299
923.24457
909.27309
892.84024
873.53222
850.8961
824.45465
793.74028
758.35682
718.08332
673.05403
624.38982
575.68409
536.07678
518.53224
526.66192
555.64871
599.07188
647.62098
695.14707
738.72806
777.45032
811.22386
840.32785
954.57318
945.95608
935.82777
923.90462
909.85737
893.30839
873.83259
850.96394
824.21213
793.09472
757.20565
716.32387
670.60691
621.27644
572.21316
533.03981
518.34954
526.72643
556.26572
600.28292
649.37201
697.27492
741.07743
779.90119
813.68481
842.73246
955.30224
946.681
936.53108
924.56222
910.43714
893.76841
874.1191
851.00873
823.93511
792.39846
755.98354
714.47
668.04227
618.03632
568.6838
530.45886
516.04529
526.65934
556.67301
601.5275
651.20512
699.47629
743.494
782.41038
816.19559
845.18152
956.03151
947.40647
937.23447
925.21859
911.01318
894.22062
874.3918
851.03251
823.62218
791.64876
754.68635
712.51556
665.35123
614.6566
565.03487
527.30903
516.14517
526.14704
557.27884
602.86248
653.11336
701.75542
745.98032
784.9786
818.75421
847.67024
956.76302
948.13431
937.93947
925.87484
911.58614
894.66505
874.64967
851.03127
823.27076
790.84246
753.30925
710.45291
662.52218
611.12359
561.33543
525.17273
514.22167
525.8014
557.80362
604.26267
655.10058
704.11456
748.5398
787.60727
821.35675
850.19327
957.50092
948.8667
938.64743
926.5318
912.15637
895.10161
874.89205
851.00298
822.87872
789.97615
751.84676
708.27351
659.54391
607.4257
557.46495
521.63497
513.69807
525.55336
558.49426
605.74427
657.1716
706.55857
751.17842
790.3019
823.99944
852.68589
958.24332
949.60374
939.35872
927.18962
912.72375
895.52992
875.11842
850.94777
822.4441
789.04613
750.29288
705.96854
656.40637
603.561
553.62262
520.0901
512.69812
525.23734
559.21405
607.29767
659.32887
709.09327
753.90542
793.0796
826.72678
855.27484
958.99128
950.34593
940.07313
927.84769
913.28749
895.94913
875.32775
850.86403
821.96444
788.04838
748.64159
703.53055
653.10422
599.52841
549.53987
515.67292
510.87042
525.0007
560.00984
608.93738
661.57903
711.72453
756.72806
795.94992
829.55588
858.07238
959.75
951.09294
940.78891
928.50428
913.84627
896.35817
875.51894
850.75013
821.43714
786.97882
746.88731
700.95384
649.62785
595.35014
545.72485
514.88035
510.68415
524.97817
560.92158
610.66938
663.92754
714.4566
759.64928
798.91239
832.4603
860.86667
960.50311
951.83585
941.50124
929.15678
914.39865
896.75616
875.69108
850.60458
820.8596
785.83337
745.02491
698.23455
645.99399
591.03124
541.55325
509.17212
508.74863
524.82432
561.86995
612.49191
666.37888
717.29202
762.66811