/*--------------------------------*- C++ -*----------------------------------*\
  =========                 |
  \\      /  F ield         | OpenFOAM: The Open Source CFD Toolbox
   \\    /   O peration     | Website:  https://openfoam.org
    \\  /    A nd           | Version:  7
     \\/     M anipulation  |
\*---------------------------------------------------------------------------*/
FoamFile
{
    version     2.0;
    format      ascii;
    class       volScalarField;
    location    "5266512000";
    object      T;
}
// * * * * * * * * * * * * * * * * * * * * * * * * * * * * * * * * * * * * * //

dimensions      [0 0 0 1 0 0 0];

internalField   nonuniform List<scalar> 
19846
(
300.33779
318.53492
376.37355
417.41121
449.00605
474.40957
495.43226
513.33201
529.06672
543.33824
556.59806
569.06893
580.78367
591.62814
601.37966
609.74019
616.37053
620.93464
623.15887
622.90036
620.19265
615.19093
608.18061
599.49874
589.46311
578.31999
334.90299
357.96389
393.39313
426.34749
454.39705
477.86735
497.66384
514.74772
529.9552
543.91065
557.00165
569.39874
581.096
591.95335
601.73195
610.12373
616.78269
621.36763
623.60088
623.33646
620.61572
615.58892
608.5478
599.84163
589.82196
578.78973
361.06232
383.30319
410.28652
436.99766
461.08619
482.0479
500.24179
516.31782
530.91525
544.52001
557.42141
569.7238
581.37977
592.22479
602.00595
610.40687
617.07623
621.66895
623.90458
623.63479
620.90652
615.86655
608.81006
600.08957
590.05888
579.03547
381.28484
401.84389
424.43159
446.83925
467.60101
486.22479
502.86433
517.95343
531.95069
545.20483
557.90895
570.10493
581.70737
592.52949
602.30522
610.70987
617.38614
621.98429
624.22039
623.94344
621.20601
616.15208
609.0809
600.34945
590.31709
579.30569
397.21207
416.07833
435.7846
455.15038
473.33228
490.02201
505.32482
519.54341
532.99865
545.9262
558.43819
570.52379
582.06532
592.85671
602.62003
611.02264
617.70132
622.30148
624.53568
624.25013
621.50309
616.43605
609.35231
600.61366
590.58639
579.60794
409.87197
427.19802
444.77213
461.90428
478.12943
493.30092
507.52326
521.01936
534.0119
546.65104
558.98615
570.96489
582.44371
593.20058
602.94735
611.34415
618.02207
622.6216
624.85189
624.55628
621.79876
616.7186
609.62317
600.87851
590.85576
579.89384
419.99978
435.95401
451.85721
467.30142
482.04708
496.05422
509.43151
522.34921
534.96089
547.35473
559.53369
571.41417
582.83271
593.55461
603.28314
611.67207
618.34715
622.94409
625.16878
624.86166
622.09255
616.99874
609.89167
601.14132
591.12398
580.18488
428.13968
442.87486
457.43598
471.5842
485.20957
498.33252
511.05994
523.52409
535.82959
548.0204
560.06599
571.85988
583.22367
593.91281
603.62357
612.00415
618.67544
623.26864
625.48628
625.16626
622.38417
617.2756
610.15602
601.39922
591.38709
580.46799
434.62339
448.3287
461.82247
474.97401
487.75032
500.20395
512.43531
524.54789
536.61111
548.63742
560.57234
572.29282
583.60942
594.27002
603.96519
612.33834
619.00589
623.5949
625.80432
625.47006
622.67333
617.54833
610.41434
601.64886
591.6389
580.74267
439.78207
452.62894
465.27648
477.65927
489.78949
501.73545
513.58878
525.4305
537.30427
549.19983
561.0455
572.70621
583.98438
594.62203
604.30511
612.67284
619.33758
623.92246
626.12287
625.77307
622.95978
617.81615
610.66502
601.88763
591.87443
580.99136
443.86548
456.0277
468.00667
479.79209
491.42653
502.98521
514.55003
526.18399
537.91131
549.70508
561.48106
573.09541
584.34442
594.96559
604.64101
613.00621
619.66973
624.25099
626.4419
626.07531
623.24341
618.0784
610.90683
602.11364
592.09221
581.2101
447.19041
458.74919
470.17796
481.49007
492.73961
504.00085
515.34517
526.82059
538.43632
550.1529
561.87675
573.45749
584.68674
595.29835
604.97116
613.33731
620.00177
624.5803
626.76143
626.37679
623.52412
618.33458
611.13875
602.32508
592.29062
581.40138
449.82932
460.91012
471.90055
482.83865
493.78809
504.8202
515.9963
527.35189
538.88435
550.54458
562.23192
573.79093
585.0096
595.61875
605.29434
613.66536
620.33327
624.91026
627.08148
626.67756
623.8017
618.58429
611.35998
602.52042
592.4671
581.5701
452.00208
462.64583
473.26661
483.90364
494.61781
505.47343
516.52199
527.78847
539.26081
550.88239
562.547
574.09525
585.31213
595.9259
605.60981
613.98984
620.66398
625.24082
627.40211
626.97765
624.07605
618.82726
611.57
602.69873
592.61837
581.7144
453.6786
463.99857
474.3311
484.73245
495.26412
505.98483
516.93794
528.13991
539.57119
551.16918
562.82323
574.37073
585.59416
596.2194
605.91718
614.31048
620.99376
625.57197
627.72336
627.27713
624.34716
619.06339
611.76871
602.86017
592.74406
581.81311
455.001
465.04707
475.15006
485.36616
495.75629
506.37453
517.25749
528.41481
539.82085
551.40814
563.06236
574.61824
585.85598
596.49929
606.2164
614.62722
621.32261
625.90376
628.04531
627.57606
624.61507
619.29268
611.95616
603.0054
592.8471
581.87529
456.06201
465.86431
475.77285
485.83898
496.11829
506.65912
517.492
528.62081
540.01488
551.60259
563.26646
574.83898
586.09828
596.76593
606.50764
614.94016
621.6506
626.23625
628.36802
627.87449
624.87984
619.51518
612.13248
603.13481
592.92942
581.90513
456.85842
466.47393
476.22841
486.17546
496.36863
506.85202
517.651
528.76464
540.15806
551.75584
563.43777
575.03443
586.322
597.0199
606.79124
615.24953
621.97787
626.56958
628.69158
628.17248
625.14153
619.73098
612.29778
603.24844
592.99104
581.91456
457.46764
466.91929
476.54489
486.39593
496.52232
506.96437
517.74291
528.85245
540.25485
551.8711
563.57858
575.20621
586.52823
597.26192
607.06772
615.55566
622.30464
626.90387
629.01605
628.47007
625.40021
619.94022
612.45234
603.34677
593.03114
581.90474
457.90181
467.21994
476.74116
486.51655
496.59304
507.00807
517.77788
528.89138
540.30974
551.95131
563.6912
575.35599
586.71819
597.49285
607.33763
615.85894
622.63117
627.23929
629.34152
628.7673
625.65591
620.14304
612.59665
603.43144
593.0536
581.84763
458.18616
467.39741
476.83508
486.5566
496.60398
507.0047
517.7724
528.89621
540.32937
551.99905
563.77788
575.48545
586.89312
597.7136
607.60163
616.15981
622.95775
627.57602
629.66806
629.06418
625.90862
620.33943
612.73088
603.50344
593.06607
581.78655
458.37617
467.48153
476.85295
486.52438
496.53877
506.92722
517.70082
528.84525
540.31398
552.0176
563.84075
575.59626
587.05428
597.92509
607.86038
616.45874
623.28479
627.91425
629.99572
629.3607
626.15823
620.52918
612.8545
603.56086
593.06801
581.73539
458.4611
467.48636
476.79007
486.4197
496.4145
506.80142
517.58848
528.75847
540.26287
552.01628
563.88155
575.69
587.20293
598.12827
608.11459
616.75621
623.61266
628.25412
630.32457
629.65685
626.40457
620.71187
612.96681
603.60193
593.04896
581.68337
458.44413
467.39658
476.65132
486.25251
496.23745
506.63057
517.43733
528.63809
540.18206
551.98094
563.90158
575.76828
587.34029
598.32408
608.36494
617.05272
623.94158
628.59578
630.65463
629.95261
626.64747
620.88699
613.06647
603.6239
593.00104
581.62505
458.32373
467.22666
476.44634
486.0294
496.01264
506.41863
517.25067
528.48716
540.07559
551.92648
563.90684
575.83264
587.46753
598.51345
608.61208
617.34869
624.27175
628.93936
630.98595
630.24797
626.88684
621.05426
613.15249
603.62874
592.90653
581.38987
458.14708
466.99543
476.18461
485.75657
495.74486
506.16953
517.03179
528.30831
539.94516
551.85144
563.89281
575.88398
587.58571
598.69725
608.85662
617.64453
624.60341
629.28495
631.31851
630.54292
627.1228
621.21406
613.22527
603.60661
592.78785
581.14547
457.89681
466.70068
475.86935
485.43855
495.43851
505.88709
516.78389
528.10427
539.79312
551.75834
563.86412
575.92404
587.69593
598.87625
609.09915
617.94061
624.93677
629.63263
631.6523
630.8375
627.35561
621.36728
613.28777
603.57287
592.6565
580.89627
457.54533
466.34076
475.50495
485.08056
495.09818
505.57507
516.51003
527.87757
539.62162
551.64897
563.82245
575.95406
587.7992
599.0512
609.34023
618.23727
625.27199
629.98244
631.98728
631.13171
627.58555
621.51481
613.34182
603.52814
592.51575
580.66245
457.1523
465.93649
475.10282
484.68982
494.72879
505.2371
516.2131
527.63057
539.4326
551.52494
563.76905
575.97515
587.89645
599.22283
609.58037
618.53484
625.60923
630.3344
632.32341
631.42551
627.81279
621.6573
613.38915
603.47666
592.36768
580.46169
456.74926
465.51268
474.67529
484.2729
494.33454
504.87631
515.89561
527.36538
539.22788
551.3878
563.70523
575.9884
587.98859
599.39181
609.82006
618.83362
625.94866
630.68856
632.66064
631.71883
628.03731
621.79474
613.42997
603.42407
592.24856
580.35386
456.30425
465.05759
474.22104
483.83151
493.91778
504.49501
515.55965
527.08386
539.00906
551.23894
563.6322
575.99495
588.07645
599.55878
610.05974
619.13392
626.29043
631.04495
632.9989
632.01158
628.2589
621.9263
613.46012
603.34399
592.03785
579.95738
455.82979
464.57585
473.74164
483.36724
493.48044
504.09516
515.20706
526.78764
538.77759
551.0796
563.55103
575.99663
588.16078
599.72434
610.29989
619.43603
626.6347
631.40361
633.33812
632.30366
628.47753
622.0524
613.48255
603.25903
591.84383
579.63839
455.33008
464.06505
473.23711
482.88167
493.02444
503.67858
514.83944
526.47815
538.53475
550.91092
563.46254
575.99228
588.24217
599.88906
610.54091
619.74024
626.98163
631.76458
633.67823
632.59496
628.69311
622.17315
613.49761
603.1669
591.65014
579.34765
454.79279
463.52577
472.71086
482.37796
492.55213
503.24701
514.45818
526.1566
538.28165
550.73395
563.36783
575.98384
588.32143
600.0535
610.78322
620.04683
627.33137
632.12791
634.01917
632.88534
628.90546
622.28832
613.50524
603.06542
591.44777
579.06545
454.21986
462.96806
472.17027
481.86016
492.06567
502.80177
514.06435
525.82398
538.01925
550.54958
563.26771
575.97203
588.39917
600.21816
611.02723
620.35608
627.6841
632.49365
634.36085
633.17466
629.1143
622.39734
613.50674
602.95191
591.22694
578.7758
453.66257
462.4127
471.62241
481.33034
491.5657
502.34335
513.65857
525.48107
537.74837
550.35862
563.16292
575.95746
588.47598
600.38355
611.27331
620.66826
628.03996
632.86185
634.70321
633.46277
629.31935
622.49947
613.49447
602.8258
590.99011
578.45007
453.13632
461.8559
471.06194
480.78511
491.0507
501.87145
513.24119
525.12849
537.46974
550.16181
563.05416
575.94079
588.55243
600.55012
611.52181
620.98361
628.39912
633.23255
635.04616
633.74955
629.52039
622.59462
613.47303
602.68396
590.72706
578.06455
452.53529
461.25706
470.47319
480.21846
490.51866
501.38574
512.81261
524.7669
537.18408
549.95986
562.94212
575.92261
588.62904
600.71833
611.7731
621.30238
628.76172
633.6058
635.38964
634.03488
629.71728
622.68256
613.44037
602.52579
590.43737
577.60854
451.88942
460.62024
469.85471
479.62952
489.9697
500.88687
512.37362
524.39712
536.89219
549.75352
562.82745
575.90353
588.70634
600.8886
612.0275
621.6248
629.12788
633.98162
635.73358
634.31869
629.91008
622.76375
613.39851
602.35612
590.13687
577.14519
451.16913
459.93764
469.20817
479.02107
489.40604
500.37648
511.92548
524.02018
536.59494
549.54353
562.71084
575.88412
588.78483
601.06137
612.28534
621.9511
629.49775
634.36007
636.07791
634.6009
630.09882
622.83863
613.34909
602.18038
589.8448
576.80652
450.48545
459.2584
468.55156
478.40043
488.83132
499.85676
511.46971
523.6372
536.29322
549.33068
562.59294
575.86498
588.86501
601.23703
612.54695
622.28149
629.87145
634.74116
636.42255
634.88141
630.28341
622.90716
613.29169
601.99498
589.53077
576.36109
449.74748
458.5532
467.88046
477.76928
488.24791
499.32963
511.00773
523.2493
535.98794
549.11571
562.47441
575.84667
588.94737
601.416
612.81262
622.6162
630.24914
635.12496
636.76742
635.16009
630.46368
622.96906
613.22618
601.80193
589.21346
575.90754
449.02167
457.84669
467.20416
477.13205
487.65843
498.79685
510.54084
522.85748
535.67994
548.89934
562.35587
575.82972
589.03236
601.59865
613.08267
622.95546
630.63095
635.51149
637.11244
635.4368
630.63931
623.02374
613.15141
601.59923
588.89247
575.46637
448.30334
457.14177
466.52594
476.49112
487.06453
498.25965
510.07003
522.46258
535.36995
548.68222
562.23791
575.81466
589.12042
601.78537
613.35734
623.29957
631.01701
635.90078
637.45753
635.71137
630.80997
623.07042
613.06553
601.38245
588.55991
575.04722
447.58142
456.43478
465.84508
475.84678
486.46679
497.71867
509.59595
522.06526
535.0586
548.46493
562.12104
575.80197
589.21198
601.97651
613.63694
623.64879
631.40738
636.29282
637.80258
635.98364
630.97536
623.10848
612.9667
601.14525
588.19099
574.57442
446.84553
455.72137
465.16003
475.19846
485.86513
497.17415
509.11904
521.66604
534.74643
548.248
562.00574
575.79213
589.3074
602.17241
613.92176
624.00319
631.80211
636.68761
638.14749
636.25351
631.13542
623.13795
612.85539
600.88942
587.78923
574.02526
446.11397
455.007
464.47127
474.54563
485.25921
496.62612
508.63959
521.26536
534.43393
548.03189
561.89244
575.78557
589.40704
602.37333
614.212
624.36285
632.20123
637.08509
638.49213
636.5209
631.29028
623.15944
612.73355
600.62096
587.37493
573.46434
445.37548
454.28554
463.7755
473.8867
484.64849
496.07464
508.15795
520.86365
534.12155
547.81707
561.78154
575.78249
589.51122
602.57957
614.50786
624.72789
632.60478
637.48522
638.83638
636.78575
631.44009
623.17368
612.60305
600.34317
586.95206
572.88602
444.62984
453.55279
463.06993
473.22059
484.03291
495.52008
507.67461
520.46141
533.80975
547.60398
561.67349
575.7821
589.62029
602.79139
614.80954
625.09839
633.01275
637.88792
639.18012
637.04796
631.58487
623.18121
612.46508
600.05969
586.5332
572.38926
443.8549
452.80174
462.35334
472.54791
483.41345
494.96332
507.19025
520.05918
533.49899
547.39302
561.56888
575.78785
589.73475
603.00905
615.11722
625.47449
633.42516
638.29315
639.52322
637.30742
631.72449
623.18331
612.31909
599.76849
586.10407
571.82205
443.06038
452.03985
461.63076
471.87189
482.79213
494.4056
506.70569
519.65753
533.18971
547.18455
561.46773
575.79754
589.85462
603.23278
615.4311
625.85626
633.84201
638.70085
639.86556
637.564
631.85861
623.17558
612.16361
599.46643
585.66256
571.25212
442.27086
451.28038
460.90929
471.19636
482.17099
493.84807
506.22159
519.25694
532.88232
546.97895
561.37051
575.81222
589.98031
603.46282
615.75135
626.24383
634.26331
639.11097
640.20705
637.81757
631.98717
623.16062
611.99815
599.15216
585.20686
570.65721
441.49412
450.52869
460.1923
470.52327
481.55111
493.2913
505.73835
518.85774
532.57715
546.77654
561.27752
575.83212
590.11207
603.6994
616.07816
626.6373
634.68908
639.52344
640.54759
638.06799
632.10988
623.13729
611.82203
598.82439
584.73544
570.04835
440.72578
449.78268
459.47932
469.85246
480.93232
492.73523
505.25604
518.46013
532.27443
546.57761
561.18905
575.85753
590.2502
603.94276
616.41172
627.03677
635.1193
639.93819
640.88707
638.31515
632.22661
623.10552
611.63521
598.48295
584.24545
569.41475
439.96066
449.04065
458.7688
469.18238
480.31353
492.17931
504.77454
518.0642
531.97439
546.3824
561.10537
575.88873
590.39492
604.19315
616.75222
627.44237
635.55398
640.35511
641.22542
638.55895
632.33734
623.06565
611.43864
598.13071
583.74505
568.80444
439.17988
448.29794
458.05679
468.50993
479.69302
491.62288
504.29374
517.67008
531.67725
546.19118
561.02675
575.92599
590.54648
604.4508
617.09985
627.85419
635.99308
640.77405
641.56254
638.79926
632.44196
623.01768
611.23277
597.76906
583.23439
568.15659
438.47581
447.56306
457.33715
467.83122
479.06952
491.0658
503.81384
517.27805
531.38329
546.00421
560.95348
575.96958
590.70514
604.71594
617.45479
628.27234
636.43656
641.19482
641.89836
639.03591
632.54029
622.96147
611.01726
597.39684
582.71171
567.48121
437.53288
446.73596
456.58844
467.1441
478.44408
490.50909
503.33551
516.88854
531.09282
545.8218
560.88582
576.01977
590.87116
604.98881
617.81722
628.69691
636.88435
641.61719
642.23278
639.2687
632.63212
622.89686
610.7919
597.01376
582.17925
566.80326
436.80064
445.99142
455.86653
466.46572
477.82219
489.95471
502.85958
516.502
530.80618
545.64421
560.82405
576.07686
591.04478
605.26965
618.18734
629.128
637.33636
642.04083
642.56576
639.49735
632.71719
622.82369
610.55656
596.61949
581.63539
566.12558
436.02062
445.23915
455.14776
465.79114
477.20327
489.40291
502.38636
516.11872
530.52363
545.47173
560.76844
576.1411
591.22626
605.55867
618.56531
629.56568
637.79249
642.46535
642.89727
639.72155
632.79523
622.7418
610.3112
596.21425
581.07966
565.45987
435.24112
444.4855
454.42966
465.11842
476.58657
488.85351
501.91592
515.73886
530.24537
545.30456
560.71922
576.21275
591.41586
605.85613
618.95132
630.01005
638.25261
642.89027
643.22733
639.94086
632.86592
622.65101
610.05562
595.79767
580.50715
564.71477
434.46077
443.7321
453.71282
464.44744
475.97181
488.30634
501.44822
515.3625
529.97153
545.14291
560.67664
576.29204
591.61385
606.16224
619.34552
630.46115
638.71659
643.315
643.55608
640.15476
632.92895
622.55112
609.78972
595.37047
579.92769
563.973
433.6778
442.98082
452.99828
463.7783
475.35879
487.76121
500.98319
514.98966
529.70224
544.98696
560.64094
576.3792
591.82047
606.47723
619.74809
630.91905
639.18434
643.73889
643.88374
640.36257
632.98396
622.44188
609.51339
594.93307
579.34483
563.26791
432.91156
442.23674
452.28647
463.1104
474.74696
487.21782
500.52072
514.62037
529.43761
544.83687
560.61235
576.47447
592.03597
606.80132
620.15917
631.38381
639.65575
644.16122
644.21065
640.56353
633.0306
622.32279
609.22576
594.48355
578.75131
562.57265
432.14551
441.49079
451.57287
462.44172
474.13549
486.67588
500.06075
514.25467
529.17775
544.69279
560.59115
576.5781
592.26061
607.13475
620.57892
631.85547
640.13082
644.58144
644.53685
640.75695
633.06856
622.19315
608.92535
594.01852
578.13642
561.84195
431.3624
440.73447
450.85441
461.77139
473.52424
486.13544
499.60336
513.89266
528.92277
544.55484
560.5776
576.6903
592.49465
607.47775
621.00748
632.33408
640.60953
644.99996
644.86055
640.9433
633.09763
622.05237
608.61097
593.53566
577.49547
561.0311
430.57719
439.97613
450.13484
461.10111
472.914
485.59684
499.14872
513.53446
528.67281
544.42314
560.57159
576.81128
592.73837
607.83056
621.44502
632.81971
641.09187
645.4173
645.18003
641.12322
633.11768
621.90019
608.28228
593.03535
576.83996
560.22804
429.78629
439.21704
449.41631
460.43232
472.30546
485.06035
498.69692
513.18015
528.42806
544.29795
560.57107
576.94139
592.99206
608.19345
621.89172
633.31245
641.57785
645.83325
645.49536
641.29657
633.12891
621.73674
607.9393
592.51587
576.16635
559.51433
428.9916
438.46032
448.70068
459.76572
471.69873
484.52592
498.24793
512.82977
528.18863
544.17994
560.58216
577.08132
593.25606
608.56671
622.34778
633.81245
642.06751
646.24775
645.80648
641.46334
633.13268
621.56263
607.58321
591.97272
575.4031
558.46848
428.2088
437.71157
447.98886
459.10076
471.09319
483.99316
497.8016
512.48329
527.95452
544.06867
560.60058
577.23085
593.53063
608.95063
622.81348
634.3199
642.56098
646.66075
646.11337
641.62349
633.1273
621.37927
607.2216
591.44453
574.73394
557.66363
427.46571
436.97287
447.2776
458.43499
470.48764
483.46162
497.35779
512.14075
527.7259
543.96452
560.62777
577.39049
593.81615
609.34555
623.28925
634.83503
643.05836
647.07221
646.41602
641.77702
633.11223
621.18573
606.84907
590.90343
574.0406
556.82832
426.66489
436.20665
446.55512
457.76521
469.88138
482.93121
496.91653
511.80224
527.50293
543.86774
560.66399
577.56061
594.11304
609.75184
623.77546
635.35803
643.5598
647.48204
646.71436
641.92384
633.08865
620.98111
606.46372
590.3484
573.33331
555.99101
425.86182
435.43749
445.83119
457.09532
469.27593
482.40246
496.47802
511.46786
527.28576
543.77858
560.7096
577.74162
594.42174
610.16998
624.27241
635.88915
644.06538
647.89009
647.00828
642.06368
633.05534
620.76421
606.06359
589.7769
572.61043
555.11768
425.05717
434.67515
445.11229
456.42834
468.67235
481.87561
496.04226
511.13766
527.07455
543.6973
560.76495
577.93392
594.74269
610.60036
624.78035
636.42862
644.57511
648.29611
647.29757
642.19628
633.01193
620.53403
605.64666
589.18479
571.86782
554.27199
424.28635
433.92719
444.39951
455.76381
468.06996
481.35014
495.60898
510.81161
526.86945
543.62416
560.8304
578.13795
595.07635
611.04343
625.29965
636.9766
645.08892
648.69973
647.58193
642.32134
632.95796
620.28991
605.21165
588.568
571.08479
553.32058
423.50981
433.17717
443.68546
455.09796
467.46671
480.82499
495.17776
510.48966
526.67063
543.5595
560.90637
578.35418
595.4232
611.49962
625.83063
637.53318
645.60658
649.10046
647.86098
642.43854
632.89317
620.03172
604.75925
587.93086
570.28387
552.397
422.74328
432.42579
442.96662
454.42762
466.86068
480.29927
494.74833
510.1719
526.47837
543.50367
560.99329
578.58308
595.78374
611.96939
626.37357
638.09835
646.12776
649.49773
648.13425
642.54751
632.81731
619.75941
604.2899
587.2744
569.46207
551.46211
421.94186
431.6542
442.23511
453.74945
466.2506
479.7727
494.32086
509.85865
526.29306
543.45714
561.09166
578.82517
596.15847
612.45317
626.92873
638.67203
646.65203
649.8909
648.40122
642.64782
632.73006
619.4728
603.80348
586.59781
568.61167
550.45145
421.11626
430.86418
441.49063
453.06362
465.6371
479.24602
493.89602
509.5505
526.11523
543.42049
561.20197
579.08098
596.54792
612.95138
627.49629
639.25404
647.17886
650.2793
648.66135
642.739
632.63105
619.17167
603.30014
585.9029
567.74382
549.42286
420.25297
430.05169
440.73581
452.37331
465.02253
478.72085
493.47493
509.24822
525.94546
543.39435
561.32475
579.35105
596.95261
613.46444
628.07642
639.84412
647.70766
650.66225
648.91409
642.82051
632.5198
618.8556
602.77964
585.19028
566.86525
548.45107
419.43619
429.25951
439.98714
451.6853
464.41022
478.19908
493.05879
508.95265
525.7843
543.37922
561.46046
579.63594
597.37306
613.99273
628.66922
640.44197
648.23781
651.03917
649.15895
642.89179
632.39571
618.52388
602.24054
584.45519
565.95094
547.35253
418.58472
428.45745
439.23812
450.99974
463.80158
477.68205
492.64862
508.66452
525.63225
543.37414
561.60961
579.93622
597.80979
614.53663
629.27476
641.04722
648.76859
651.40937
649.39543
642.9523
632.25821
618.17589
601.68227
583.69831
565.01608
546.26848
417.75981
427.66647
438.49505
450.3192
463.19821
477.17087
492.24516
508.38443
525.49007
543.38102
561.77296
580.25244
598.2633
615.09647
629.89306
641.65944
649.29936
651.77253
649.62322
643.00149
632.10671
617.81111
601.10456
582.91969
564.05786
545.1616
416.94539
426.88138
437.75776
449.64479
462.60118
476.66627
491.84883
508.11258
525.35803
543.40125
561.95098
580.58509
598.73406
615.67257
630.52409
642.27813
649.8291
652.1277
649.84177
643.0388
631.94066
617.42898
600.50703
582.1192
563.07552
544.02945
416.13323
426.10198
437.0278
448.97792
462.01132
476.16851
491.45957
507.84884
525.23592
543.43355
562.14383
580.93463
599.22253
616.26518
631.16776
642.90277
650.3572
652.475
650.05092
643.06379
631.75949
617.02887
599.88922
581.29671
562.06859
542.87062
415.32625
425.33282
436.30773
448.31963
461.42863
475.67706
491.07674
507.59276
525.12362
543.47834
562.35191
581.30151
599.72913
616.87454
631.82394
643.5327
650.88194
652.81265
650.24977
643.0765
631.56256
616.61009
599.25055
580.4522
561.03757
541.66067
414.53412
424.57479
435.59737
447.66889
460.85148
475.19023
490.69903
507.34354
525.02083
543.5357
562.57554
581.6862
600.25429
617.50085
632.49249
644.16737
651.40319
653.14193
650.4383
643.07933
631.34904
616.17186
598.5903
579.58579
559.98995
540.45409
413.73172
423.82182
434.89354
447.0221
460.27634
474.70524
490.32459
507.10022
524.92722
543.60575
562.8151
582.08919
600.79844
618.14432
633.17327
644.806
651.91779
653.45933
650.61475
643.06185
631.11772
615.71332
597.90717
578.69509
558.91891
539.24687
412.96202
423.08527
434.19258
446.37276
459.69791
474.21864
489.95153
506.86194
524.84259
543.68869
563.07105
582.511
601.36207
618.80522
633.86631
645.44844
652.42796
653.76955
650.78044
643.03239
630.8687
615.23345
597.19973
577.77823
557.81936
537.98559
412.1724
422.3239
433.47191
445.70912
459.1102
473.72752
489.57856
506.62829
524.76704
543.78493
563.34393
582.9523
601.94574
619.48397
634.57182
646.09409
652.92735
654.06562
650.9328
642.98642
630.60064
614.73108
596.46631
576.83313
556.69258
536.70161
411.3185
421.51723
432.72178
445.02678
458.51141
473.2313
489.2057
506.39959
524.70104
543.89508
563.63449
583.41382
602.55018
620.18116
635.29036
646.74388
653.42441
654.35968
651.07513
642.92503
630.3131
614.20518
595.70536
575.85735
555.53453
535.39696
410.45671
420.6948
431.95574
444.33209
457.90477
472.73181
488.8341
506.1767
524.64542
544.01996
563.94358
583.89648
603.17629
620.89768
636.02269
647.39695
653.90397
654.63648
651.20315
642.84722
630.00559
613.65486
594.91562
574.84962
554.34496
534.0663
409.59693
419.87008
431.1844
443.63194
457.29446
472.23157
488.46535
505.96077
524.6012
544.16054
564.27222
584.40133
603.82517
621.63465
636.76984
648.05558
654.38849
654.92241
651.32377
642.75443
629.67817
613.07931
594.09554
573.80742
553.12058
532.70431
408.73853
419.04574
430.41184
442.93003
456.68326
471.73251
488.10081
505.75285
524.56956
544.31784
564.62153
584.92957
604.49811
622.39341
637.53259
648.71697
654.84109
655.18333
651.42733
642.64584
629.33094
612.47789
593.24347
572.72703
551.85399
531.32774
407.8785
418.22039
429.6383
442.22737
456.07233
471.23571
487.74144
505.5538
524.55147
544.49289
564.99275
585.48254
605.19653
623.17548
638.31169
649.38558
655.31539
655.47346
651.52829
642.52439
628.96451
611.85029
592.3584
571.60528
550.52825
529.85364
407.01233
417.3913
428.86247
441.52357
455.46179
470.74159
487.38793
505.36435
524.54593
544.68677
565.38721
586.06173
605.92186
623.98202
639.10709
650.05467
655.72945
655.72008
651.60468
642.38791
628.57892
611.19655
591.44087
570.44562
549.15475
528.28448
406.13785
416.5572
428.08321
440.8178
454.85127
470.25025
487.04077
505.18567
524.55637
544.90105
565.80634
586.66871
606.67574
624.81394
639.91907
650.73327
656.20097
656.02667
651.68809
642.24098
628.17449
610.51675
590.49171
569.25198
547.75118
526.71247
405.26333
415.71908
427.29948
440.10901
454.24021
469.76166
486.70035
505.01842
524.58395
545.1369
566.25157
587.30504
607.45953
625.67173
640.74704
651.40806
656.5687
656.24242
651.74042
642.07769
627.74989
609.81038
589.51081
568.02468
546.31509
525.10187
404.37204
414.8691
426.50783
439.39579
453.62826
469.27599
486.36715
504.8632
524.62865
545.39541
566.72434
587.97227
608.27443
626.55581
641.59114
652.09539
657.0609
656.55967
651.80712
641.90302
627.30467
609.07647
588.49721
566.76306
544.84901
523.46979
403.46047
414.0059
425.70803
438.67842
453.01591
468.7939
486.04195
504.72095
524.69174
545.67791
567.22616
588.67187
609.12151
627.46653
642.45034
652.77214
657.37
656.73206
651.83706
641.7086
626.83681
608.31341
587.44904
565.46413
543.34792
521.81949
402.54977
413.13915
424.9044
437.95908
452.40449
468.31639
485.72569
504.59266
524.77438
545.98577
567.75853
589.40524
610.00167
628.40398
643.32451
653.46314
657.89853
657.07961
651.89201
641.50316
626.34538
607.51932
586.36409
564.12483
541.8055
520.13184
401.63745
412.26986
424.09867
437.23926
451.79519
467.84445
485.41928
504.47933
524.87775
546.32034
568.32291
590.1737
610.91572
629.36831
644.21192
654.1363
658.13291
657.20275
651.89953
641.27037
625.82657
606.69172
585.23998
562.74246
540.21754
518.39741
400.71544
411.39533
423.29059
436.51955
451.18879
467.37886
485.12355
504.3819
525.003
546.68299
568.92074
590.9785
611.86438
630.35922
645.11095
654.81619
658.70191
657.52484
651.92198
641.01997
625.2788
605.82825
584.0744
561.3149
538.5819
516.61197
399.78589
410.51695
422.48115
435.80076
450.58593
466.92023
484.83918
504.30124
525.15124
547.07504
569.55346
591.82088
612.84838
631.37655
646.02014
655.48168
658.85581
657.59305
651.85769
640.73529
624.69974
604.92671
582.86517
559.84043
536.89809
514.77741
398.85672
409.63839
421.67203
435.08365
449.98704
466.46892
484.56669
504.23819
525.32357
547.49784
570.22251
592.70212
613.8684
632.41961
646.93456
656.1207
659.5388
657.99987
651.84825
640.43781
624.08968
603.9853
581.61018
558.31729
535.16536
512.89662
397.92972
408.76045
420.86341
434.36813
449.392
466.02494
484.30638
504.19366
525.52102
547.95276
570.92941
593.62356
614.9252
633.48809
647.85612
656.77191
659.60694
658.02079
651.73544
640.104
623.44498
603.00168
580.3072
556.74348
533.38165
510.96621
396.99924
407.88033
420.0537
433.65318
448.80018
465.58805
484.05834
504.16836
525.74455
548.44122
571.67581
594.5868
616.01993
634.58203
648.77534
657.32189
660.06357
658.06725
651.67082
639.75755
622.766
601.97364
578.95384
555.11715
531.54542
508.98294
396.06433
406.996
419.24105
432.93748
448.21082
465.158
483.82254
504.16059
525.99517
548.96485
572.4636
595.5939
617.15466
635.70368
649.70655
657.97554
660.0801
658.2001
651.5595
639.38105
622.04876
600.8981
577.54753
553.43671
529.65707
506.94967
395.12226
406.10517
418.42366
432.21976
447.62326
464.73477
483.59995
504.17373
526.27473
549.5255
573.29502
596.64749
618.33229
636.85521
650.63166
658.42333
660.46332
658.30053
651.46656
638.98154
621.29363
599.77285
576.0851
551.70002
527.71845
504.86981
394.16748
405.20505
417.59987
431.49909
447.03713
464.31851
483.39123
504.20946
526.58476
550.12517
574.17258
597.75051
619.55527
638.03773
651.57844
659.13178
660.59247
658.38202
651.33404
638.55357
620.4978
598.5943
574.56173
549.90213
525.73139
502.79682
393.20232
404.29539
416.76917
430.77529
446.4526
463.90962
483.19686
504.26766
526.92661
550.76597
575.09901
598.90577
620.82528
639.24911
652.49891
659.4561
660.80667
658.47662
651.1938
638.09951
619.65929
597.35823
572.97051
548.02997
523.66074
500.62372
392.22519
403.37542
415.93176
430.04902
445.87047
463.50897
483.01782
504.34968
527.302
551.45018
576.07688
600.11521
622.14182
640.48685
653.454
660.30576
661.1667
658.55585
651.03461
637.61423
618.77431
596.06022
571.30542
546.07515
521.49121
498.25197
391.22901
402.44546
415.08964
429.32218
445.29219
463.11766
482.85517
504.45684
527.71271
552.18008
577.1084
601.37967
623.50335
641.7416
654.32922
660.48457
661.23493
658.59378
650.8466
637.09511
617.8394
594.69648
569.56276
544.03591
519.24099
495.85928
390.23537
401.51665
414.24853
428.59775
444.7193
462.73659
482.70976
504.59038
528.16053
552.95783
578.19537
602.69891
624.90643
643.00942
655.26242
661.53722
661.61046
658.65703
650.64841
636.54187
616.85136
593.26392
567.74111
541.91433
516.91651
493.42103