/*--------------------------------*- C++ -*----------------------------------*\
  =========                 |
  \\      /  F ield         | OpenFOAM: The Open Source CFD Toolbox
   \\    /   O peration     | Website:  https://openfoam.org
    \\  /    A nd           | Version:  7
     \\/     M anipulation  |
\*---------------------------------------------------------------------------*/
FoamFile
{
    version     2.0;
    format      ascii;
    class       volVectorField;
    location    "6825600000";
    object      heatFlux;
}
// * * * * * * * * * * * * * * * * * * * * * * * * * * * * * * * * * * * * * //

dimensions      [1 0 -3 0 0 0 0];

internalField   nonuniform List<vector> 
5000
(
(0.000184126 4.32576 -0)
(0.000558957 4.32657 -0)
(0.00093942 4.32817 -0)
(0.00131679 4.33059 -0)
(0.00168566 4.33389 -0)
(0.00203572 4.33812 -0)
(0.0023525 4.34338 -0)
(0.00261557 4.34976 -0)
(0.00279528 4.35742 -0)
(0.00284899 4.36653 -0)
(0.00271679 4.37733 -0)
(0.00231525 4.39012 -0)
(0.00152 4.40527 -0)
(0.00019991 4.42323 -0)
(-0.00176585 4.44461 -0)
(-0.00467576 4.47016 -0)
(-0.00883713 4.50069 -0)
(-0.0145064 4.53729 -0)
(-0.0220711 4.58125 -0)
(-0.0319602 4.63414 -0)
(-0.0446397 4.69783 -0)
(-0.0606475 4.77453 -0)
(-0.0802123 4.86646 -0)
(-0.103791 4.97774 -0)
(-0.132058 5.11141 -0)
(-0.165147 5.27112 -0)
(-0.203037 5.46148 -0)
(-0.245609 5.68749 -0)
(-0.292475 5.95452 -0)
(-0.342867 6.26831 -0)
(-0.39561 6.63495 -0)
(-0.449121 7.06086 -0)
(-0.501485 7.55253 -0)
(-0.550336 8.11636 -0)
(-0.589314 8.75923 -0)
(-0.606664 9.49658 -0)
(-0.601932 10.3512 -0)
(-0.585265 11.3067 -0)
(-0.557811 12.3234 -0)
(-0.548499 13.3619 -0)
(-0.485875 14.3223 -0)
(-0.694035 15.2686 -0)
(-0.448958 15.668 -0)
(-0.0297136 16.7905 -0)
(-0.830655 17.099 -0)
(-1.69793 16.2759 -0)
(-1.61532 15.9678 -0)
(-1.52927 15.6485 -0)
(-2.79664 14.6216 -0)
(1.93577 8.88176 -0)
(5.53226 16.22 -0)
(1.66658 20.4938 -0)
(-1.85585 20.5787 -0)
(-2.08517 16.3781 -0)
(1.43428 14.0262 -0)
(2.17087 16.2001 -0)
(0.115943 17.9631 -0)
(-0.329346 16.1195 -0)
(0.663631 14.612 -0)
(0.733824 14.2603 -0)
(0.478836 13.0137 -0)
(0.64591 12.0413 -0)
(0.64514 11.0954 -0)
(0.651901 10.2302 -0)
(0.633622 9.45363 -0)
(0.597226 8.75415 -0)
(0.55184 8.12758 -0)
(0.501348 7.57191 -0)
(0.448026 7.08379 -0)
(0.393961 6.65857 -0)
(0.341014 6.29095 -0)
(0.290667 5.97538 -0)
(0.243978 5.70631 -0)
(0.201613 5.47828 -0)
(0.163908 5.28605 -0)
(0.130987 5.1246 -0)
(0.10291 4.98936 -0)
(0.079443 4.87691 -0)
(0.0599398 4.78366 -0)
(0.0440263 4.70586 -0)
(0.0314204 4.64117 -0)
(0.0215928 4.58739 -0)
(0.0140792 4.54263 -0)
(0.00845208 4.50531 -0)
(0.00432423 4.47412 -0)
(0.00146746 4.44797 -0)
(-0.000467895 4.42608 -0)
(-0.00177439 4.40763 -0)
(-0.00253443 4.39205 -0)
(-0.00291038 4.37888 -0)
(-0.00301922 4.36775 -0)
(-0.00294367 4.35834 -0)
(-0.00274349 4.35044 -0)
(-0.00246119 4.34383 -0)
(-0.00212624 4.3384 -0)
(-0.0017587 4.33401 -0)
(-0.00137218 4.3306 -0)
(-0.000976097 4.32809 -0)
(-0.000577094 4.32644 -0)
(-0.000188782 4.32561 -0)
(0.000555258 4.04425 -0)
(0.00167144 4.04485 -0)
(0.00280379 4.04605 -0)
(0.00396616 4.04787 -0)
(0.00517011 4.05035 -0)
(0.00642014 4.05352 -0)
(0.00772068 4.05743 -0)
(0.00907602 4.06217 -0)
(0.0104873 4.06783 -0)
(0.0119489 4.07451 -0)
(0.0134451 4.08238 -0)
(0.0149446 4.0916 -0)
(0.0163948 4.10242 -0)
(0.0177456 4.1151 -0)
(0.0189132 4.13 -0)
(0.0197362 4.14745 -0)
(0.0200536 4.16802 -0)
(0.0196977 4.19225 -0)
(0.0184438 4.22082 -0)
(0.0160356 4.25455 -0)
(0.0121945 4.29437 -0)
(0.00633434 4.34138 -0)
(-0.000938269 4.39685 -0)
(-0.00989661 4.46224 -0)
(-0.0217569 4.53913 -0)
(-0.0360175 4.62932 -0)
(-0.0522071 4.73484 -0)
(-0.0700535 4.85791 -0)
(-0.0889333 5.001 -0)
(-0.107768 5.16685 -0)
(-0.125062 5.35848 -0)
(-0.138935 5.57904 -0)
(-0.14712 5.83168 -0)
(-0.146351 6.11911 -0)
(-0.127631 6.44267 -0)
(-0.0795653 6.79723 -0)
(-0.0266824 7.15916 -0)
(-0.0130169 7.48641 -0)
(-0.0521764 7.72306 -0)
(-0.168032 7.82111 -0)
(-0.321711 7.77261 -0)
(-0.616699 7.52537 -0)
(-0.567658 7.47069 -0)
(-0.898322 6.9223 -0)
(-1.80311 6.39358 -0)
(-1.25568 6.68436 -0)
(-0.487097 7.26151 -0)
(-0.902583 7.50501 -0)
(-4.63462 7.64276 -0)
(-0.561081 4.43616 -0)
(6.30355 3.67971 -0)
(3.3566 5.0847 -0)
(-1.17434 6.23684 -0)
(-2.99225 8.19964 -0)
(0.210205 7.90816 -0)
(3.88519 6.8391 -0)
(2.16241 7.73288 -0)
(-0.48327 8.47469 -0)
(0.133759 8.4918 -0)
(0.382162 8.09875 -0)
(0.0175986 8.01814 -0)
(0.101036 7.72457 -0)
(0.114169 7.4117 -0)
(0.145064 7.06562 -0)
(0.16852 6.72051 -0)
(0.173876 6.39395 -0)
(0.169314 6.09304 -0)
(0.158972 5.82072 -0)
(0.144263 5.57757 -0)
(0.126426 5.36267 -0)
(0.106863 5.17417 -0)
(0.0869073 5.00977 -0)
(0.0676303 4.86711 -0)
(0.0497467 4.74392 -0)
(0.0336424 4.63798 -0)
(0.0195168 4.54721 -0)
(0.00804268 4.46968 -0)
(-0.00078191 4.40363 -0)
(-0.00805315 4.34752 -0)
(-0.0136724 4.29988 -0)
(-0.0173766 4.25946 -0)
(-0.0196576 4.22516 -0)
(-0.0207985 4.19606 -0)
(-0.0210529 4.17135 -0)
(-0.0206414 4.15034 -0)
(-0.019724 4.13248 -0)
(-0.0184763 4.1172 -0)
(-0.017055 4.10418 -0)
(-0.0155313 4.09306 -0)
(-0.013965 4.08357 -0)
(-0.0124066 4.07546 -0)
(-0.0108867 4.06856 -0)
(-0.00942069 4.06272 -0)
(-0.0080137 4.05783 -0)
(-0.00666418 4.05378 -0)
(-0.00536697 4.0505 -0)
(-0.00411582 4.04794 -0)
(-0.00290441 4.04605 -0)
(-0.00172378 4.04481 -0)
(-0.000569874 4.04419 -0)
(0.00078628 3.55091 -0)
(0.00236502 3.55122 -0)
(0.003966 3.55183 -0)
(0.00561294 3.55276 -0)
(0.00732665 3.554 -0)
(0.00912072 3.5556 -0)
(0.0110096 3.55756 -0)
(0.0130095 3.55991 -0)
(0.0151357 3.5627 -0)
(0.0173999 3.56598 -0)
(0.0198073 3.56979 -0)
(0.0223526 3.57423 -0)
(0.0250182 3.57938 -0)
(0.0277803 3.58536 -0)
(0.030586 3.59231 -0)
(0.0333439 3.6004 -0)
(0.0359546 3.60986 -0)
(0.0383016 3.62097 -0)
(0.0402365 3.63403 -0)
(0.0415902 3.64945 -0)
(0.0421856 3.66769 -0)
(0.0418267 3.68934 -0)
(0.0406507 3.71537 -0)
(0.0384897 3.74576 -0)
(0.0350208 3.78174 -0)
(0.0305619 3.82452 -0)
(0.0255541 3.87513 -0)
(0.0205521 3.93475 -0)
(0.016462 4.00478 -0)
(0.0146088 4.08672 -0)
(0.0165871 4.18201 -0)
(0.0240865 4.29168 -0)
(0.0385855 4.41556 -0)
(0.0606492 4.55044 -0)
(0.0887995 4.68606 -0)
(0.109827 4.79438 -0)
(0.0872468 4.82003 -0)
(-0.0213653 4.73597 -0)
(-0.223104 4.50212 -0)
(-0.498945 4.11724 -0)
(-0.781619 3.66061 -0)
(-0.995962 3.20247 -0)
(-1.05203 2.99626 -0)
(-1.10682 2.6258 -0)
(-1.06859 2.96603 -0)
(-0.830001 3.6942 -0)
(-0.794678 3.54734 -0)
(-1.14802 3.31373 -0)
(-5.86549 3.10679 -0)
(-2.02728 1.61341 -0)
(6.18079 0.0642856 -0)
(4.22371 1.04687 -0)
(1.25909 2.11982 -0)
(-0.41385 4.59873 -0)
(0.0737475 6.36062 -0)
(1.99558 5.32202 -0)
(1.75153 3.60014 -0)
(0.429573 4.21741 -0)
(0.287694 4.78877 -0)
(0.260164 4.62723 -0)
(0.104647 4.853 -0)
(0.0394714 4.93237 -0)
(-0.0138029 4.94606 -0)
(-0.0392894 4.8946 -0)
(-0.0380497 4.78842 -0)
(-0.0302423 4.65853 -0)
(-0.0213955 4.52428 -0)
(-0.0141269 4.396 -0)
(-0.0100222 4.27872 -0)
(-0.00944002 4.17431 -0)
(-0.0118863 4.08285 -0)
(-0.0163876 4.00352 -0)
(-0.0218731 3.93516 -0)
(-0.027523 3.87655 -0)
(-0.032794 3.82653 -0)
(-0.0373073 3.78406 -0)
(-0.0406719 3.74823 -0)
(-0.0427241 3.71766 -0)
(-0.0438126 3.69164 -0)
(-0.0440316 3.66986 -0)
(-0.0432947 3.65146 -0)
(-0.0418037 3.63586 -0)
(-0.0397397 3.62262 -0)
(-0.0372712 3.61135 -0)
(-0.0345445 3.60171 -0)
(-0.0316742 3.59347 -0)
(-0.0287648 3.58636 -0)
(-0.0259061 3.58023 -0)
(-0.023147 3.57496 -0)
(-0.0205136 3.5704 -0)
(-0.0180233 3.56648 -0)
(-0.0156808 3.56311 -0)
(-0.0134806 3.56023 -0)
(-0.0114106 3.5578 -0)
(-0.00945485 3.55578 -0)
(-0.00759623 3.55414 -0)
(-0.00581864 3.55285 -0)
(-0.00410695 3.5519 -0)
(-0.0024426 3.55126 -0)
(-0.000809744 3.55094 -0)
(0.000861164 2.94032 -0)
(0.00258965 2.94034 -0)
(0.00434131 2.94038 -0)
(0.00614116 2.94044 -0)
(0.00801205 2.94052 -0)
(0.00997084 2.94062 -0)
(0.0120348 2.94073 -0)
(0.0142227 2.94085 -0)
(0.0165528 2.94099 -0)
(0.0190412 2.94114 -0)
(0.0216988 2.94131 -0)
(0.0245297 2.94151 -0)
(0.0275286 2.94173 -0)
(0.0306806 2.94201 -0)
(0.0339515 2.94237 -0)
(0.037286 2.94286 -0)
(0.0406171 2.94356 -0)
(0.0438632 2.94458 -0)
(0.0469261 2.94605 -0)
(0.0496996 2.94818 -0)
(0.0520839 2.9512 -0)
(0.0540063 2.95544 -0)
(0.0554816 2.96133 -0)
(0.0564758 2.96904 -0)
(0.0570098 2.97921 -0)
(0.0573729 2.99249 -0)
(0.0580207 3.00947 -0)
(0.0596019 3.03074 -0)
(0.063035 3.05691 -0)
(0.0694538 3.08836 -0)
(0.0798971 3.12494 -0)
(0.0946152 3.16536 -0)
(0.111642 3.20573 -0)
(0.124156 3.23694 -0)
(0.116309 3.24013 -0)
(0.0543985 3.18013 -0)
(-0.0850918 3.02702 -0)
(-0.330923 2.75215 -0)
(-0.670912 2.36668 -0)
(-1.00955 1.92446 -0)
(-1.23648 1.53791 -0)
(-1.28105 1.30404 -0)
(-1.14433 1.29729 -0)
(-0.928551 1.44726 -0)
(-0.734714 1.79354 -0)
(-0.674365 1.99771 -0)
(-0.86756 1.92517 -0)
(-1.34314 1.60902 -0)
(-6.33495 0.88605 -0)
(-3.60358 0.817686 -0)
(5.73701 -1.09099 -0)
(5.41213 -0.287917 -0)
(2.37753 0.435638 -0)
(1.24855 1.421 -0)
(0.933488 2.70072 -0)
(1.12471 2.80079 -0)
(1.0578 1.99871 -0)
(0.705356 2.16183 -0)
(0.543587 2.45626 -0)
(0.446397 2.59495 -0)
(0.322734 2.80347 -0)
(0.194096 2.9898 -0)
(0.0764042 3.13485 -0)
(-0.0125767 3.23012 -0)
(-0.0675513 3.26937 -0)
(-0.0902629 3.26589 -0)
(-0.0932156 3.23704 -0)
(-0.0865931 3.1972 -0)
(-0.0774309 3.15518 -0)
(-0.0694457 3.11565 -0)
(-0.0639294 3.08067 -0)
(-0.0607811 3.05087 -0)
(-0.0593381 3.02612 -0)
(-0.0588877 3.00597 -0)
(-0.0588483 2.98985 -0)
(-0.0587827 2.97722 -0)
(-0.0583534 2.96753 -0)
(-0.0573663 2.96015 -0)
(-0.0558544 2.95455 -0)
(-0.053857 2.95053 -0)
(-0.0513736 2.94767 -0)
(-0.0484916 2.94567 -0)
(-0.0453179 2.9443 -0)
(-0.0419615 2.94336 -0)
(-0.0385215 2.94272 -0)
(-0.0350805 2.94228 -0)
(-0.0317073 2.94196 -0)
(-0.0284576 2.94171 -0)
(-0.0253646 2.9415 -0)
(-0.0224439 2.94133 -0)
(-0.0197007 2.94117 -0)
(-0.017131 2.94103 -0)
(-0.0147235 2.9409 -0)
(-0.0124617 2.94078 -0)
(-0.0103269 2.94068 -0)
(-0.00829962 2.94059 -0)
(-0.00636152 2.94051 -0)
(-0.0044948 2.94045 -0)
(-0.00267773 2.9404 -0)
(-0.000889205 2.94038 -0)
(0.000808077 2.30296 -0)
(0.00242935 2.30277 -0)
(0.00407083 2.3024 -0)
(0.00575459 2.30184 -0)
(0.00750089 2.30108 -0)
(0.00932555 2.3001 -0)
(0.0112443 2.29889 -0)
(0.0132733 2.29743 -0)
(0.0154286 2.29571 -0)
(0.017724 2.2937 -0)
(0.0201696 2.29138 -0)
(0.0227704 2.2887 -0)
(0.0255242 2.28565 -0)
(0.0284201 2.28221 -0)
(0.0314351 2.27835 -0)
(0.0345339 2.27406 -0)
(0.0376713 2.26936 -0)
(0.0407927 2.26429 -0)
(0.0438362 2.25889 -0)
(0.04674 2.25326 -0)
(0.0494531 2.24754 -0)
(0.0519498 2.24189 -0)
(0.0542436 2.23651 -0)
(0.0563777 2.2316 -0)
(0.0584778 2.22744 -0)
(0.0608144 2.22433 -0)
(0.0637992 2.22252 -0)
(0.0679948 2.22214 -0)
(0.0740813 2.22316 -0)
(0.0826448 2.22515 -0)
(0.0935876 2.22689 -0)
(0.104867 2.22568 -0)
(0.110166 2.21605 -0)
(0.095051 2.18784 -0)
(0.0319923 2.12269 -0)
(-0.103283 2.00447 -0)
(-0.340737 1.81916 -0)
(-0.681702 1.55806 -0)
(-1.05079 1.27379 -0)
(-1.32771 1.04281 -0)
(-1.40205 0.952004 -0)
(-1.23658 1.05044 -0)
(-0.908799 1.31 -0)
(-0.610569 1.59748 -0)
(-0.518148 1.76422 -0)
(-0.698368 1.68705 -0)
(-1.18337 1.36984 -0)
(-2.18715 0.830679 -0)
(-6.65682 -0.191207 -0)
(-4.00432 0.420953 -0)
(5.07519 -0.642976 -0)
(5.75034 -1.17722 -0)
(2.96801 -0.595988 -0)
(1.85124 -0.11596 -0)
(1.45354 0.434376 -0)
(1.29357 0.833225 -0)
(1.11258 0.970364 -0)
(0.887116 1.19436 -0)
(0.720812 1.39435 -0)
(0.607374 1.52414 -0)
(0.499499 1.64946 -0)
(0.370849 1.7844 -0)
(0.226515 1.92251 -0)
(0.0952354 2.04016 -0)
(-0.00228564 2.12726 -0)
(-0.0625751 2.18235 -0)
(-0.0900829 2.21071 -0)
(-0.0959846 2.22161 -0)
(-0.0915672 2.22339 -0)
(-0.0839518 2.2214 -0)
(-0.076673 2.21867 -0)
(-0.0709357 2.21672 -0)
(-0.0667733 2.21618 -0)
(-0.0637944 2.21718 -0)
(-0.0615416 2.21962 -0)
(-0.0596231 2.2233 -0)
(-0.0577411 2.22798 -0)
(-0.0557031 2.23335 -0)
(-0.0534341 2.23913 -0)
(-0.0509159 2.24515 -0)
(-0.0481505 2.25119 -0)
(-0.0451768 2.2571 -0)
(-0.0420538 2.26275 -0)
(-0.038848 2.26805 -0)
(-0.0356239 2.27295 -0)
(-0.032438 2.27741 -0)
(-0.0293371 2.28143 -0)
(-0.0263575 2.28501 -0)
(-0.0235224 2.28818 -0)
(-0.0208432 2.29096 -0)
(-0.0183221 2.29338 -0)
(-0.0159544 2.29547 -0)
(-0.0137297 2.29726 -0)
(-0.0116339 2.29878 -0)
(-0.00965102 2.30003 -0)
(-0.00776419 2.30105 -0)
(-0.00595721 2.30185 -0)
(-0.00421377 2.30243 -0)
(-0.00251369 2.30282 -0)
(-0.000835761 2.30301 -0)
(0.000676978 1.71023 -0)
(0.00203452 1.70994 -0)
(0.00340749 1.70936 -0)
(0.0048134 1.70848 -0)
(0.00626807 1.70728 -0)
(0.00778409 1.70576 -0)
(0.00937364 1.70388 -0)
(0.011049 1.70164 -0)
(0.0128217 1.699 -0)
(0.0147018 1.69594 -0)
(0.0166965 1.69241 -0)
(0.0188091 1.68838 -0)
(0.0210377 1.68382 -0)
(0.0233744 1.67868 -0)
(0.0258036 1.67293 -0)
(0.0283023 1.66655 -0)
(0.0308412 1.65953 -0)
(0.0333856 1.65188 -0)
(0.0358992 1.6436 -0)
(0.0383485 1.63475 -0)
(0.0407105 1.6254 -0)
(0.0429825 1.61563 -0)
(0.0451908 1.60553 -0)
(0.0474021 1.59522 -0)
(0.0497486 1.58481 -0)
(0.0524514 1.57438 -0)
(0.0558223 1.56393 -0)
(0.0602417 1.55333 -0)
(0.0660454 1.5422 -0)
(0.0731856 1.52979 -0)
(0.0804311 1.51462 -0)
(0.0837799 1.49411 -0)
(0.0737993 1.46392 -0)
(0.030795 1.4171 -0)
(-0.0670565 1.34718 -0)
(-0.249132 1.25242 -0)
(-0.531505 1.1292 -0)
(-0.876297 1.00944 -0)
(-1.18616 0.943944 -0)
(-1.33133 0.990862 -0)
(-1.22885 1.18209 -0)
(-0.923051 1.48196 -0)
(-0.597287 1.76519 -0)
(-0.474331 1.86169 -0)
(-0.645145 1.69051 -0)
(-1.06875 1.28322 -0)
(-1.72393 0.766586 -0)
(-2.90419 0.240954 -0)
(-6.74468 -0.406976 -0)
(-4.05535 0.30427 -0)
(4.13884 -0.298262 -0)
(5.45912 -1.49757 -0)
(3.43879 -1.13937 -0)
(2.27891 -0.813516 -0)
(1.88267 -0.427561 -0)
(1.6607 -0.00392102 -0)
(1.41893 0.375852 -0)
(1.12935 0.704649 -0)
(0.87337 0.92345 -0)
(0.7015 1.03465 -0)
(0.582994 1.09073 -0)
(0.467147 1.13984 -0)
(0.332168 1.20311 -0)
(0.192171 1.27668 -0)
(0.0746367 1.34543 -0)
(-0.00681334 1.40187 -0)
(-0.0539628 1.4455 -0)
(-0.0739078 1.47581 -0)
(-0.0776363 1.49714 -0)
(-0.0741681 1.51298 -0)
(-0.0686068 1.52583 -0)
(-0.0632698 1.53723 -0)
(-0.0588847 1.54806 -0)
(-0.0554515 1.55875 -0)
(-0.0527221 1.56948 -0)
(-0.0504166 1.58028 -0)
(-0.0483023 1.59108 -0)
(-0.0462154 1.60179 -0)
(-0.0440623 1.61226 -0)
(-0.0418004 1.6224 -0)
(-0.0394187 1.6321 -0)
(-0.0369308 1.64126 -0)
(-0.0343666 1.64983 -0)
(-0.0317644 1.65776 -0)
(-0.0291637 1.66502 -0)
(-0.026601 1.67162 -0)
(-0.0241072 1.67756 -0)
(-0.0217065 1.68288 -0)
(-0.0194149 1.68761 -0)
(-0.0172409 1.69178 -0)
(-0.0151867 1.69544 -0)
(-0.013249 1.69861 -0)
(-0.0114207 1.70135 -0)
(-0.00969161 1.70367 -0)
(-0.00805009 1.70561 -0)
(-0.00648368 1.70719 -0)
(-0.00497999 1.70844 -0)
(-0.00352621 1.70935 -0)
(-0.00210596 1.70996 -0)
(-0.000700905 1.71026 -0)
(0.000517615 1.20643 -0)
(0.00155501 1.20612 -0)
(0.002603 1.2055 -0)
(0.0036744 1.20456 -0)
(0.00478047 1.20328 -0)
(0.00593016 1.20166 -0)
(0.00713194 1.19968 -0)
(0.0083941 1.19731 -0)
(0.00972431 1.19453 -0)
(0.0111289 1.19131 -0)
(0.0126124 1.18763 -0)
(0.0141763 1.18344 -0)
(0.015819 1.17871 -0)
(0.0175345 1.17341 -0)
(0.0193127 1.16751 -0)
(0.0211388 1.16099 -0)
(0.0229946 1.15383 -0)
(0.0248594 1.14603 -0)
(0.0267127 1.13758 -0)
(0.0285376 1.12851 -0)
(0.0303259 1.11886 -0)
(0.0320842 1.10866 -0)
(0.0338412 1.09796 -0)
(0.035657 1.08679 -0)
(0.0376352 1.07517 -0)
(0.0399309 1.06309 -0)
(0.0427433 1.05042 -0)
(0.0462677 1.03695 -0)
(0.0505435 1.02224 -0)
(0.0550625 1.0056 -0)
(0.0579132 0.985938 -0)
(0.0541682 0.961758 -0)
(0.0331475 0.931211 -0)
(-0.0216895 0.892888 -0)
(-0.132679 0.851275 -0)
(-0.321259 0.808966 -0)
(-0.583717 0.787914 -0)
(-0.866962 0.820756 -0)
(-1.06937 0.944387 -0)
(-1.08956 1.17489 -0)
(-0.910948 1.47451 -0)
(-0.65349 1.73796 -0)
(-0.529065 1.82329 -0)
(-0.685242 1.63338 -0)
(-1.09663 1.19655 -0)
(-1.6223 0.632403 -0)
(-2.22563 0.137206 -0)
(-3.36071 -0.252711 -0)
(-6.5935 -0.58138 -0)
(-3.89561 0.2331 -0)
(3.27335 -0.144761 -0)
(4.90923 -1.31152 -0)
(3.65205 -1.28919 -0)
(2.56305 -1.10496 -0)
(2.26313 -0.81696 -0)
(2.09699 -0.402133 -0)
(1.82115 0.0440339 -0)
(1.43471 0.418567 -0)
(1.05081 0.670847 -0)
(0.774653 0.790797 -0)
(0.604687 0.818929 -0)
(0.483234 0.81055 -0)
(0.363356 0.805456 -0)
(0.237552 0.818321 -0)
(0.122905 0.846278 -0)
(0.0374909 0.879066 -0)
(-0.0161393 0.911918 -0)
(-0.0443425 0.94127 -0)
(-0.054396 0.96568 -0)
(-0.0552595 0.986027 -0)
(-0.0524214 1.00342 -0)
(-0.0487025 1.01882 -0)
(-0.0452546 1.03294 -0)
(-0.0423777 1.04622 -0)
(-0.0400187 1.05893 -0)
(-0.038021 1.07119 -0)
(-0.0362285 1.08306 -0)
(-0.0345207 1.09452 -0)
(-0.0328194 1.10552 -0)
(-0.0310814 1.11602 -0)
(-0.0292896 1.12597 -0)
(-0.0274453 1.13531 -0)
(-0.0255621 1.14402 -0)
(-0.0236606 1.15207 -0)
(-0.0217638 1.15946 -0)
(-0.0198942 1.16619 -0)
(-0.0180713 1.17228 -0)
(-0.0163107 1.17776 -0)
(-0.0146232 1.18264 -0)
(-0.0130152 1.18697 -0)
(-0.0114887 1.19079 -0)
(-0.010042 1.19411 -0)
(-0.00867101 1.19699 -0)
(-0.00736923 1.19944 -0)
(-0.00612898 1.2015 -0)
(-0.00494194 1.20317 -0)
(-0.00379965 1.20449 -0)
(-0.00269306 1.20547 -0)
(-0.00161011 1.20612 -0)
(-0.00053637 1.20644 -0)
(0.000366136 0.809543 -0)
(0.00109953 0.809267 -0)
(0.00183959 0.808714 -0)
(0.00259505 0.807878 -0)
(0.00337335 0.806751 -0)
(0.00418032 0.80532 -0)
(0.00502138 0.803572 -0)
(0.00590168 0.801489 -0)
(0.0068259 0.799053 -0)
(0.00779775 0.79624 -0)
(0.00881961 0.793028 -0)
(0.00989212 0.78939 -0)
(0.0110137 0.785301 -0)
(0.0121804 0.780737 -0)
(0.0133855 0.775676 -0)
(0.01462 0.770098 -0)
(0.015873 0.76399 -0)
(0.0171326 0.757347 -0)
(0.0183876 0.750169 -0)
(0.0196301 0.742464 -0)
(0.0208582 0.734246 -0)
(0.0220801 0.725532 -0)
(0.0233188 0.716336 -0)
(0.0246179 0.706661 -0)
(0.0260463 0.696488 -0)
(0.0276989 0.685758 -0)
(0.0296825 0.674348 -0)
(0.0320594 0.662045 -0)
(0.0346941 0.648524 -0)
(0.0368841 0.633335 -0)
(0.0365926 0.615982 -0)
(0.0290531 0.596161 -0)
(0.00493024 0.574369 -0)
(-0.0491416 0.554168 -0)
(-0.150979 0.542287 -0)
(-0.312493 0.552661 -0)
(-0.519715 0.608639 -0)
(-0.719824 0.735335 -0)
(-0.832023 0.944104 -0)
(-0.801212 1.20966 -0)
(-0.665784 1.45761 -0)
(-0.574272 1.57934 -0)
(-0.701865 1.47853 -0)
(-1.10107 1.13389 -0)
(-1.64613 0.617702 -0)
(-2.12809 0.0854133 -0)
(-2.60904 -0.34161 -0)
(-3.62278 -0.615279 -0)
(-6.25887 -0.765055 -0)
(-3.61873 0.181513 -0)
(2.59422 -0.0710148 -0)
(4.31469 -0.995702 -0)
(3.64535 -1.2374 -0)
(2.75114 -1.15351 -0)
(2.5855 -0.925981 -0)
(2.5217 -0.552884 -0)
(2.23963 -0.116398 -0)
(1.75616 0.254679 -0)
(1.2456 0.508231 -0)
(0.849582 0.63084 -0)
(0.602746 0.65138 -0)
(0.453674 0.618232 -0)
(0.339939 0.574611 -0)
(0.232993 0.545228 -0)
(0.135382 0.536452 -0)
(0.0588266 0.544051 -0)
(0.00824164 0.55945 -0)
(-0.0201464 0.579105 -0)
(-0.0328793 0.598436 -0)
(-0.0364283 0.616123 -0)
(-0.0358099 0.631953 -0)
(-0.0337483 0.646181 -0)
(-0.0314871 0.659168 -0)
(-0.029464 0.67123 -0)
(-0.0277507 0.682593 -0)
(-0.0262857 0.693398 -0)
(-0.0249798 0.70372 -0)
(-0.0237556 0.713587 -0)
(-0.0225581 0.722996 -0)
(-0.0213541 0.731932 -0)
(-0.0201276 0.740372 -0)
(-0.0188756 0.748294 -0)
(-0.0176033 0.75568 -0)
(-0.0163214 0.76252 -0)
(-0.0150427 0.768812 -0)
(-0.0137803 0.774562 -0)
(-0.0125461 0.779781 -0)
(-0.0113498 0.78449 -0)
(-0.0101984 0.78871 -0)
(-0.00909639 0.792466 -0)
(-0.00804544 0.795785 -0)
(-0.0070451 0.798692 -0)
(-0.00609306 0.80121 -0)
(-0.00518563 0.803364 -0)
(-0.00431815 0.805172 -0)
(-0.00348551 0.806652 -0)
(-0.0026824 0.807818 -0)
(-0.00190296 0.808684 -0)
(-0.00113894 0.809256 -0)
(-0.000379753 0.809541 -0)
(0.00024176 0.517321 -0)
(0.000725772 0.517104 -0)
(0.00121365 0.516671 -0)
(0.001711 0.516017 -0)
(0.00222242 0.515136 -0)
(0.00275145 0.514019 -0)
(0.0033013 0.512657 -0)
(0.00387498 0.511037 -0)
(0.00447512 0.509146 -0)
(0.00510374 0.506968 -0)
(0.005762 0.504488 -0)
(0.00645 0.501687 -0)
(0.0071665 0.49855 -0)
(0.00790888 0.495059 -0)
(0.00867303 0.491199 -0)
(0.00945355 0.486959 -0)
(0.0102441 0.48233 -0)
(0.0110381 0.477306 -0)
(0.0118295 0.471887 -0)
(0.0126148 0.466076 -0)
(0.0133941 0.45988 -0)
(0.014174 0.453303 -0)
(0.0149699 0.446347 -0)
(0.0158091 0.439004 -0)
(0.0167322 0.431247 -0)
(0.0177907 0.423021 -0)
(0.0190307 0.414228 -0)
(0.0204434 0.404721 -0)
(0.0218333 0.394306 -0)
(0.0225205 0.382788 -0)
(0.0207388 0.370132 -0)
(0.012556 0.356857 -0)
(-0.00884508 0.344861 -0)
(-0.0537722 0.339399 -0)
(-0.134185 0.348695 -0)
(-0.254907 0.388516 -0)
(-0.401043 0.477535 -0)
(-0.531496 0.628924 -0)
(-0.595042 0.834673 -0)
(-0.576051 1.05253 -0)
(-0.541276 1.2094 -0)
(-0.632572 1.22536 -0)
(-0.974516 1.0507 -0)
(-1.54607 0.694311 -0)
(-2.1451 0.220518 -0)
(-2.58161 -0.253987 -0)
(-2.92632 -0.633923 -0)
(-3.78416 -0.822737 -0)
(-5.79671 -0.90092 -0)
(-3.20157 0.169347 -0)
(2.09614 -0.0129665 -0)
(3.74285 -0.710851 -0)
(3.49425 -1.08626 -0)
(2.87447 -1.07478 -0)
(2.86375 -0.887281 -0)
(2.90657 -0.544048 -0)
(2.62871 -0.146273 -0)
(2.05934 0.186315 -0)
(1.42697 0.405902 -0)
(0.917802 0.508145 -0)
(0.592078 0.519058 -0)
(0.406465 0.477521 -0)
(0.290352 0.420247 -0)
(0.199393 0.372062 -0)
(0.121729 0.343202 -0)
(0.0604889 0.332986 -0)
(0.0189142 0.3354 -0)
(-0.0053565 0.344812 -0)
(-0.0173774 0.357136 -0)
(-0.0217424 0.369755 -0)
(-0.0223641 0.381672 -0)
(-0.0214878 0.392631 -0)
(-0.0202052 0.4027 -0)
(-0.0189524 0.412032 -0)
(-0.0178505 0.420776 -0)
(-0.0168941 0.429038 -0)
(-0.0160402 0.436885 -0)
(-0.0152448 0.444352 -0)
(-0.0144738 0.451452 -0)
(-0.0137053 0.458182 -0)
(-0.0129277 0.464534 -0)
(-0.0121373 0.470499 -0)
(-0.0113358 0.476067 -0)
(-0.0105286 0.481233 -0)
(-0.00972251 0.485998 -0)
(-0.00892495 0.490364 -0)
(-0.00814284 0.49434 -0)
(-0.007382 0.497939 -0)
(-0.00664684 0.501174 -0)
(-0.00594022 0.504064 -0)
(-0.00526352 0.506624 -0)
(-0.00461675 0.508872 -0)
(-0.00399882 0.510826 -0)
(-0.00340773 0.512499 -0)
(-0.00284088 0.513907 -0)
(-0.00229533 0.515061 -0)
(-0.00176802 0.515972 -0)
(-0.00125542 0.516649 -0)
(-0.000752193 0.517097 -0)
(-0.000251035 0.517321 -0)
(0.000149942 0.315142 -0)
(0.000449985 0.314988 -0)
(0.000752117 0.314679 -0)
(0.00105972 0.314214 -0)
(0.00137548 0.313587 -0)
(0.00170141 0.312794 -0)
(0.00203929 0.311829 -0)
(0.00239077 0.310682 -0)
(0.00275724 0.309346 -0)
(0.00313972 0.30781 -0)
(0.00353871 0.306065 -0)
(0.00395409 0.3041 -0)
(0.00438499 0.301904 -0)
(0.00482975 0.299467 -0)
(0.00528594 0.29678 -0)
(0.00575042 0.293837 -0)
(0.00621964 0.290631 -0)
(0.00668997 0.28716 -0)
(0.00715833 0.283423 -0)
(0.00762296 0.279422 -0)
(0.00808446 0.275158 -0)
(0.00854701 0.270634 -0)
(0.00901972 0.265847 -0)
(0.0095179 0.260789 -0)
(0.0100632 0.255438 -0)
(0.0106803 0.249754 -0)
(0.0113834 0.243675 -0)
(0.0121372 0.237117 -0)
(0.0127602 0.22999 -0)
(0.0127099 0.222266 -0)
(0.0106624 0.214155 -0)
(0.00378224 0.206505 -0)
(-0.0125279 0.201654 -0)
(-0.0453077 0.20429 -0)
(-0.101863 0.222735 -0)
(-0.183653 0.269475 -0)
(-0.279307 0.357197 -0)
(-0.362686 0.490425 -0)
(-0.408413 0.6543 -0)
(-0.426489 0.809446 -0)
(-0.49296 0.901107 -0)
(-0.73297 0.879492 -0)
(-1.23291 0.719344 -0)
(-1.93125 0.427318 -0)
(-2.59442 0.0373251 -0)
(-2.98253 -0.395885 -0)
(-3.17779 -0.728957 -0)
(-3.88977 -0.880765 -0)
(-5.26678 -0.852684 -0)
(-2.73078 0.18159 -0)
(1.71402 0.0218013 -0)
(3.24139 -0.504007 -0)
(3.28142 -0.89814 -0)
(2.95013 -0.937485 -0)
(3.11623 -0.770399 -0)
(3.2627 -0.441256 -0)
(2.96999 -0.0912186 -0)
(2.30833 0.185728 -0)
(1.56743 0.349789 -0)
(0.962738 0.413378 -0)
(0.572122 0.406758 -0)
(0.354863 0.361335 -0)
(0.23448 0.303928 -0)
(0.155948 0.253446 -0)
(0.0963059 0.21902 -0)
(0.0510243 0.201337 -0)
(0.0200668 0.196423 -0)
(0.00158965 0.198993 -0)
(-0.00793545 0.205544 -0)
(-0.0118922 0.213388 -0)
(-0.012934 0.221289 -0)
(-0.0127205 0.22877 -0)
(-0.0120862 0.235725 -0)
(-0.011388 0.242192 -0)
(-0.0107453 0.248246 -0)
(-0.0101763 0.253956 -0)
(-0.00966499 0.259366 -0)
(-0.00918875 0.264505 -0)
(-0.00872865 0.269386 -0)
(-0.00827175 0.27401 -0)
(-0.00781079 0.278376 -0)
(-0.00734298 0.28248 -0)
(-0.00686877 0.286316 -0)
(-0.00639067 0.289883 -0)
(-0.00591236 0.29318 -0)
(-0.00543787 0.296209 -0)
(-0.00497109 0.298975 -0)
(-0.0045154 0.301485 -0)
(-0.00407341 0.303749 -0)
(-0.00364691 0.305775 -0)
(-0.00323686 0.307575 -0)
(-0.00284346 0.30916 -0)
(-0.00246625 0.310539 -0)
(-0.00210423 0.311723 -0)
(-0.00175604 0.31272 -0)
(-0.00142011 0.313539 -0)
(-0.00109478 0.314187 -0)
(-0.000778079 0.314668 -0)
(-0.000466714 0.314987 -0)
(-0.000155913 0.315147 -0)
(8.7732e-05 0.183195 -0)
(0.000263208 0.183094 -0)
(0.000439735 0.182891 -0)
(0.000619242 0.182585 -0)
(0.00080322 0.182174 -0)
(0.000992737 0.181654 -0)
(0.00118873 0.181021 -0)
(0.00139205 0.18027 -0)
(0.00160338 0.179397 -0)
(0.00182321 0.178396 -0)
(0.00205171 0.17726 -0)
(0.00228871 0.175983 -0)
(0.00253364 0.17456 -0)
(0.00278552 0.172985 -0)
(0.00304294 0.171252 -0)
(0.00330415 0.169358 -0)
(0.0035672 0.1673 -0)
(0.00383015 0.165076 -0)
(0.00409138 0.162687 -0)
(0.00435003 0.160133 -0)
(0.0046065 0.157415 -0)
(0.00486311 0.154533 -0)
(0.00512472 0.151486 -0)
(0.00539918 0.148267 -0)
(0.00569704 0.144863 -0)
(0.00602861 0.14125 -0)
(0.00639428 0.137394 -0)
(0.00675781 0.133253 -0)
(0.00698149 0.128801 -0)
(0.00668551 0.124086 -0)
(0.00497792 0.119384 -0)
(5.55411e-05 0.11552 -0)
(-0.0110594 0.114539 -0)
(-0.0326913 0.120078 -0)
(-0.0690011 0.138737 -0)
(-0.120445 0.179156 -0)
(-0.180092 0.249098 -0)
(-0.234393 0.349159 -0)
(-0.276021 0.465996 -0)
(-0.329245 0.571341 -0)
(-0.47123 0.630534 -0)
(-0.814335 0.615412 -0)
(-1.42669 0.508872 -0)
(-2.22809 0.301223 -0)
(-2.9683 -0.00573336 -0)
(-3.34789 -0.378187 -0)
(-3.4112 -0.702923 -0)
(-3.90788 -0.835227 -0)
(-4.73435 -0.668597 -0)
(-2.32708 0.198084 -0)
(1.41054 0.0509788 -0)
(2.8229 -0.357781 -0)
(3.06077 -0.718917 -0)
(3.00221 -0.780658 -0)
(3.35998 -0.615459 -0)
(3.58575 -0.28964 -0)
(3.25569 0.0116375 -0)
(2.50035 0.22473 -0)
(1.65462 0.323487 -0)
(0.974771 0.341267 -0)
(0.540035 0.313355 -0)
(0.303635 0.265068 -0)
(0.182463 0.21321 -0)
(0.114486 0.168844 -0)
(0.0696201 0.137502 -0)
(0.0378918 0.119554 -0)
(0.0165697 0.112132 -0)
(0.0037639 0.111348 -0)
(-0.0029827 0.114175 -0)
(-0.00599668 0.118531 -0)
(-0.00698124 0.123282 -0)
(-0.00705276 0.127934 -0)
(-0.00678401 0.132324 -0)
(-0.00643052 0.136433 -0)
(-0.00608629 0.140288 -0)
(-0.00577414 0.143924 -0)
(-0.00549063 0.147368 -0)
(-0.00522554 0.150639 -0)
(-0.0049692 0.153745 -0)
(-0.00471467 0.15669 -0)
(-0.00445785 0.159473 -0)
(-0.00419706 0.162091 -0)
(-0.00393234 0.164543 -0)
(-0.00366493 0.166827 -0)
(-0.00339671 0.168943 -0)
(-0.00312985 0.170891 -0)
(-0.00286645 0.172674 -0)
(-0.0026084 0.174296 -0)
(-0.00235718 0.175762 -0)
(-0.00211387 0.177078 -0)
(-0.00187909 0.178249 -0)
(-0.00165303 0.179282 -0)
(-0.00143556 0.180182 -0)
(-0.0012262 0.180957 -0)
(-0.00102429 0.18161 -0)
(-0.000829052 0.182147 -0)
(-0.000639639 0.182572 -0)
(-0.000455015 0.182889 -0)
(-0.000273254 0.183099 -0)
(-9.13803e-05 0.183204 -0)
(4.85775e-05 0.101728 -0)
(0.000145697 0.101666 -0)
(0.000243307 0.101541 -0)
(0.000342455 0.101354 -0)
(0.000443919 0.101102 -0)
(0.000548242 0.100783 -0)
(0.000655885 0.100396 -0)
(0.000767258 0.0999379 -0)
(0.000882685 0.0994053 -0)
(0.00100237 0.0987954 -0)
(0.00112635 0.0981049 -0)
(0.00125449 0.0973304 -0)
(0.00138644 0.0964686 -0)
(0.00152162 0.0955166 -0)
(0.00165927 0.0944718 -0)
(0.00179843 0.0933322 -0)
(0.00193806 0.0920964 -0)
(0.00207714 0.090764 -0)
(0.00221482 0.089335 -0)
(0.00235065 0.08781 -0)
(0.00248481 0.0861897 -0)
(0.00261844 0.0844743 -0)
(0.0027539 0.0826627 -0)
(0.00289491 0.0807513 -0)
(0.00304615 0.0787328 -0)
(0.00321125 0.0765949 -0)
(0.00338648 0.074321 -0)
(0.00354411 0.0718945 -0)
(0.00359269 0.0693168 -0)
(0.00329252 0.0666544 -0)
(0.00209631 0.0641494 -0)
(-0.00106235 0.0624499 -0)
(-0.00796941 0.0630063 -0)
(-0.0211095 0.0684473 -0)
(-0.0427856 0.0831925 -0)
(-0.0732919 0.112769 -0)
(-0.109303 0.161719 -0)
(-0.145789 0.229668 -0)
(-0.186231 0.307755 -0)
(-0.26195 0.379244 -0)
(-0.448888 0.425721 -0)
(-0.854633 0.433138 -0)
(-1.5471 0.386824 -0)
(-2.44585 0.261865 -0)
(-3.27383 0.0322256 -0)
(-3.67972 -0.28412 -0)
(-3.63483 -0.607149 -0)
(-3.85545 -0.728801 -0)
(-4.23347 -0.470016 -0)
(-2.0112 0.228883 -0)
(1.15815 0.0881613 -0)
(2.47149 -0.24831 -0)
(2.85855 -0.563387 -0)
(3.05359 -0.622264 -0)
(3.60725 -0.443736 -0)
(3.8898 -0.134224 -0)
(3.48436 0.138209 -0)
(2.62018 0.279117 -0)
(1.68397 0.312421 -0)
(0.952607 0.286043 -0)
(0.495923 0.238429 -0)
(0.254718 0.188598 -0)
(0.138257 0.144157 -0)
(0.0802395 0.108767 -0)
(0.0470154 0.0840046 -0)
(0.0256547 0.0692544 -0)
(0.0118609 0.0622806 -0)
(0.00363168 0.060369 -0)
(-0.000752673 0.061238 -0)
(-0.00278504 0.0634241 -0)
(-0.00353076 0.0660554 -0)
(-0.00367772 0.0687323 -0)
(-0.00358719 0.0713024 -0)
(-0.00342466 0.073727 -0)
(-0.00325455 0.0760104 -0)
(-0.00309574 0.0781681 -0)
(-0.00294947 0.0802143 -0)
(-0.00281169 0.0821586 -0)
(-0.00267789 0.0840065 -0)
(-0.00254462 0.0857599 -0)
(-0.0024098 0.0874189 -0)
(-0.00227252 0.0889822 -0)
(-0.00213279 0.0904485 -0)
(-0.00199121 0.0918169 -0)
(-0.00184874 0.0930869 -0)
(-0.00170651 0.0942588 -0)
(-0.00156564 0.0953338 -0)
(-0.00142712 0.0963138 -0)
(-0.00129179 0.0972013 -0)
(-0.00116024 0.0979993 -0)
(-0.00103285 0.098711 -0)
(-0.000909797 0.0993398 -0)
(-0.000791035 0.099889 -0)
(-0.000676378 0.100362 -0)
(-0.00056552 0.100761 -0)
(-0.000458093 0.10109 -0)
(-0.000353707 0.10135 -0)
(-0.000251848 0.101544 -0)
(-0.000151435 0.101673 -0)
(-5.06994e-05 0.101738 -0)
(2.55073e-05 0.0540222 -0)
(7.64815e-05 0.0539863 -0)
(0.000127668 0.0539146 -0)
(0.000179605 0.0538066 -0)
(0.00023268 0.0536615 -0)
(0.000287152 0.0534784 -0)
(0.000343237 0.0532561 -0)
(0.000401119 0.0529931 -0)
(0.000460941 0.0526879 -0)
(0.000522777 0.0523389 -0)
(0.000586624 0.0519444 -0)
(0.000652381 0.0515026 -0)
(0.000719844 0.051012 -0)
(0.000788698 0.050471 -0)
(0.000858529 0.0498785 -0)
(0.000928841 0.0492334 -0)
(0.000999089 0.0485354 -0)
(0.00106874 0.0477842 -0)
(0.00113736 0.0469801 -0)
(0.00120468 0.0461235 -0)
(0.00127076 0.0452149 -0)
(0.0013361 0.0442547 -0)
(0.00140174 0.0432423 -0)
(0.00146931 0.0421762 -0)
(0.00154069 0.0410528 -0)
(0.00161679 0.0398665 -0)
(0.00169381 0.0386101 -0)
(0.00175366 0.0372789 -0)
(0.00174141 0.035883 -0)
(0.00151806 0.0344787 -0)