/*--------------------------------*- C++ -*----------------------------------*\
  =========                 |
  \\      /  F ield         | OpenFOAM: The Open Source CFD Toolbox
   \\    /   O peration     | Website:  https://openfoam.org
    \\  /    A nd           | Version:  7
     \\/     M anipulation  |
\*---------------------------------------------------------------------------*/
FoamFile
{
    version     2.0;
    format      ascii;
    class       volScalarField;
    location    "6825600000";
    object      p;
}
// * * * * * * * * * * * * * * * * * * * * * * * * * * * * * * * * * * * * * //

dimensions      [1 -1 -2 0 0 0 0];

internalField   nonuniform List<scalar> 
5000
(
2.94089e+07
2.94088e+07
2.94085e+07
2.9408e+07
2.94074e+07
2.94066e+07
2.94057e+07
2.94046e+07
2.94033e+07
2.94019e+07
2.94003e+07
2.93985e+07
2.93966e+07
2.93944e+07
2.93921e+07
2.93895e+07
2.93867e+07
2.93837e+07
2.93805e+07
2.9377e+07
2.93732e+07
2.93691e+07
2.93647e+07
2.93599e+07
2.93548e+07
2.93493e+07
2.93434e+07
2.9337e+07
2.93301e+07
2.93228e+07
2.93149e+07
2.93065e+07
2.92975e+07
2.9288e+07
2.92778e+07
2.9267e+07
2.92555e+07
2.92432e+07
2.923e+07
2.92157e+07
2.92001e+07
2.91831e+07
2.9164e+07
2.91454e+07
2.91238e+07
2.90954e+07
2.90682e+07
2.90413e+07
2.90136e+07
2.89838e+07
2.90143e+07
2.90501e+07
2.90695e+07
2.90766e+07
2.90944e+07
2.91249e+07
2.91505e+07
2.91684e+07
2.91852e+07
2.92029e+07
2.92182e+07
2.92326e+07
2.9246e+07
2.92585e+07
2.92703e+07
2.92814e+07
2.92918e+07
2.93016e+07
2.93107e+07
2.93193e+07
2.93273e+07
2.93347e+07
2.93417e+07
2.93481e+07
2.93541e+07
2.93597e+07
2.93649e+07
2.93697e+07
2.93741e+07
2.93783e+07
2.93821e+07
2.93856e+07
2.93889e+07
2.93919e+07
2.93947e+07
2.93973e+07
2.93996e+07
2.94018e+07
2.94038e+07
2.94055e+07
2.94071e+07
2.94086e+07
2.94098e+07
2.94109e+07
2.94119e+07
2.94126e+07
2.94133e+07
2.94137e+07
2.9414e+07
2.94142e+07
2.92457e+07
2.92455e+07
2.92452e+07
2.92448e+07
2.92441e+07
2.92434e+07
2.92424e+07
2.92413e+07
2.924e+07
2.92386e+07
2.9237e+07
2.92352e+07
2.92332e+07
2.9231e+07
2.92286e+07
2.92261e+07
2.92233e+07
2.92203e+07
2.92171e+07
2.92136e+07
2.92099e+07
2.92059e+07
2.92017e+07
2.91971e+07
2.91923e+07
2.91872e+07
2.91817e+07
2.91759e+07
2.91698e+07
2.91633e+07
2.91564e+07
2.91492e+07
2.91416e+07
2.91336e+07
2.91252e+07
2.91163e+07
2.91068e+07
2.90967e+07
2.90858e+07
2.90741e+07
2.90616e+07
2.90484e+07
2.90353e+07
2.90198e+07
2.90046e+07
2.89921e+07
2.89748e+07
2.89542e+07
2.89316e+07
2.89006e+07
2.89164e+07
2.89309e+07
2.89512e+07
2.89774e+07
2.89956e+07
2.90078e+07
2.90219e+07
2.90393e+07
2.9054e+07
2.90659e+07
2.90782e+07
2.90895e+07
2.91002e+07
2.91103e+07
2.91198e+07
2.91288e+07
2.91374e+07
2.91456e+07
2.91534e+07
2.91607e+07
2.91677e+07
2.91743e+07
2.91806e+07
2.91864e+07
2.9192e+07
2.91972e+07
2.92021e+07
2.92067e+07
2.9211e+07
2.9215e+07
2.92187e+07
2.92222e+07
2.92255e+07
2.92285e+07
2.92313e+07
2.92338e+07
2.92362e+07
2.92384e+07
2.92404e+07
2.92422e+07
2.92438e+07
2.92453e+07
2.92465e+07
2.92477e+07
2.92486e+07
2.92494e+07
2.925e+07
2.92505e+07
2.92508e+07
2.9251e+07
2.90705e+07
2.90703e+07
2.907e+07
2.90695e+07
2.90689e+07
2.90681e+07
2.90671e+07
2.9066e+07
2.90647e+07
2.90632e+07
2.90616e+07
2.90597e+07
2.90577e+07
2.90555e+07
2.90531e+07
2.90505e+07
2.90477e+07
2.90446e+07
2.90414e+07
2.90379e+07
2.90341e+07
2.90301e+07
2.90259e+07
2.90214e+07
2.90166e+07
2.90115e+07
2.90061e+07
2.90005e+07
2.89945e+07
2.89882e+07
2.89816e+07
2.89746e+07
2.89673e+07
2.89595e+07
2.89513e+07
2.89426e+07
2.89334e+07
2.89235e+07
2.8913e+07
2.89021e+07
2.88909e+07
2.88795e+07
2.88681e+07
2.8856e+07
2.88445e+07
2.88334e+07
2.88192e+07
2.88031e+07
2.87865e+07
2.87692e+07
2.8769e+07
2.87784e+07
2.87949e+07
2.88168e+07
2.8836e+07
2.8847e+07
2.88567e+07
2.88702e+07
2.88834e+07
2.8895e+07
2.89064e+07
2.89173e+07
2.89276e+07
2.89373e+07
2.89465e+07
2.89552e+07
2.89635e+07
2.89713e+07
2.89788e+07
2.89859e+07
2.89926e+07
2.8999e+07
2.90051e+07
2.90108e+07
2.90163e+07
2.90214e+07
2.90263e+07
2.90309e+07
2.90352e+07
2.90392e+07
2.9043e+07
2.90465e+07
2.90498e+07
2.90528e+07
2.90557e+07
2.90583e+07
2.90607e+07
2.90629e+07
2.9065e+07
2.90668e+07
2.90684e+07
2.90699e+07
2.90712e+07
2.90724e+07
2.90733e+07
2.90741e+07
2.90748e+07
2.90752e+07
2.90756e+07
2.90757e+07
2.88868e+07
2.88866e+07
2.88863e+07
2.88858e+07
2.88852e+07
2.88844e+07
2.88834e+07
2.88823e+07
2.8881e+07
2.88795e+07
2.88778e+07
2.88759e+07
2.88739e+07
2.88717e+07
2.88692e+07
2.88666e+07
2.88637e+07
2.88607e+07
2.88574e+07
2.88538e+07
2.88501e+07
2.8846e+07
2.88418e+07
2.88372e+07
2.88324e+07
2.88274e+07
2.8822e+07
2.88164e+07
2.88104e+07
2.88042e+07
2.87976e+07
2.87907e+07
2.87834e+07
2.87756e+07
2.87675e+07
2.87589e+07
2.87498e+07
2.87405e+07
2.8731e+07
2.87216e+07
2.87123e+07
2.87032e+07
2.86941e+07
2.86849e+07
2.86754e+07
2.86652e+07
2.86533e+07
2.86404e+07
2.86281e+07
2.86199e+07
2.8612e+07
2.86169e+07
2.86284e+07
2.86442e+07
2.86598e+07
2.86715e+07
2.86811e+07
2.86922e+07
2.87034e+07
2.8714e+07
2.87245e+07
2.87346e+07
2.87444e+07
2.87539e+07
2.87629e+07
2.87715e+07
2.87797e+07
2.87875e+07
2.87949e+07
2.88019e+07
2.88086e+07
2.8815e+07
2.8821e+07
2.88267e+07
2.88321e+07
2.88373e+07
2.88421e+07
2.88467e+07
2.8851e+07
2.88551e+07
2.88589e+07
2.88625e+07
2.88658e+07
2.88689e+07
2.88717e+07
2.88744e+07
2.88769e+07
2.88791e+07
2.88812e+07
2.8883e+07
2.88847e+07
2.88862e+07
2.88875e+07
2.88887e+07
2.88896e+07
2.88905e+07
2.88911e+07
2.88916e+07
2.88919e+07
2.88921e+07
2.86976e+07
2.86975e+07
2.86972e+07
2.86967e+07
2.8696e+07
2.86952e+07
2.86942e+07
2.86931e+07
2.86918e+07
2.86903e+07
2.86886e+07
2.86867e+07
2.86847e+07
2.86825e+07
2.868e+07
2.86774e+07
2.86745e+07
2.86714e+07
2.86682e+07
2.86646e+07
2.86609e+07
2.86569e+07
2.86526e+07
2.86482e+07
2.86434e+07
2.86384e+07
2.86331e+07
2.86275e+07
2.86217e+07
2.86155e+07
2.8609e+07
2.86022e+07
2.85949e+07
2.85874e+07
2.85794e+07
2.85712e+07
2.85628e+07
2.85545e+07
2.85466e+07
2.85391e+07
2.8532e+07
2.85252e+07
2.85183e+07
2.85111e+07
2.8503e+07
2.84938e+07
2.84835e+07
2.84729e+07
2.84633e+07
2.84586e+07
2.84503e+07
2.84509e+07
2.84583e+07
2.84694e+07
2.84814e+07
2.84923e+07
2.8502e+07
2.85117e+07
2.85212e+07
2.85305e+07
2.85396e+07
2.85487e+07
2.85577e+07
2.85665e+07
2.85752e+07
2.85836e+07
2.85916e+07
2.85992e+07
2.86065e+07
2.86134e+07
2.862e+07
2.86262e+07
2.86322e+07
2.86378e+07
2.86432e+07
2.86483e+07
2.86531e+07
2.86576e+07
2.86619e+07
2.86659e+07
2.86697e+07
2.86733e+07
2.86766e+07
2.86797e+07
2.86825e+07
2.86852e+07
2.86877e+07
2.86899e+07
2.8692e+07
2.86938e+07
2.86955e+07
2.8697e+07
2.86983e+07
2.86995e+07
2.87005e+07
2.87013e+07
2.87019e+07
2.87024e+07
2.87027e+07
2.87029e+07
2.85052e+07
2.85051e+07
2.85048e+07
2.85043e+07
2.85037e+07
2.85029e+07
2.85019e+07
2.85008e+07
2.84995e+07
2.8498e+07
2.84963e+07
2.84945e+07
2.84925e+07
2.84903e+07
2.84879e+07
2.84853e+07
2.84825e+07
2.84795e+07
2.84762e+07
2.84728e+07
2.84691e+07
2.84652e+07
2.84611e+07
2.84568e+07
2.84521e+07
2.84473e+07
2.84422e+07
2.84368e+07
2.84311e+07
2.84251e+07
2.84189e+07
2.84123e+07
2.84054e+07
2.83981e+07
2.83906e+07
2.8383e+07
2.83756e+07
2.83685e+07
2.83622e+07
2.83565e+07
2.83513e+07
2.83464e+07
2.83412e+07
2.83353e+07
2.83283e+07
2.83203e+07
2.83115e+07
2.83028e+07
2.82955e+07
2.82921e+07
2.82854e+07
2.82831e+07
2.82874e+07
2.82953e+07
2.83047e+07
2.83142e+07
2.83231e+07
2.83314e+07
2.83395e+07
2.83473e+07
2.83551e+07
2.83629e+07
2.83709e+07
2.8379e+07
2.8387e+07
2.83949e+07
2.84025e+07
2.84098e+07
2.84168e+07
2.84235e+07
2.84298e+07
2.84358e+07
2.84415e+07
2.8447e+07
2.84522e+07
2.84571e+07
2.84617e+07
2.84661e+07
2.84703e+07
2.84742e+07
2.84779e+07
2.84814e+07
2.84846e+07
2.84877e+07
2.84905e+07
2.84931e+07
2.84955e+07
2.84977e+07
2.84997e+07
2.85016e+07
2.85032e+07
2.85047e+07
2.8506e+07
2.85071e+07
2.85081e+07
2.85089e+07
2.85095e+07
2.851e+07
2.85103e+07
2.85105e+07
2.83114e+07
2.83112e+07
2.83109e+07
2.83105e+07
2.83099e+07
2.83091e+07
2.83081e+07
2.8307e+07
2.83058e+07
2.83044e+07
2.83028e+07
2.8301e+07
2.8299e+07
2.82969e+07
2.82946e+07
2.82921e+07
2.82894e+07
2.82865e+07
2.82835e+07
2.82802e+07
2.82767e+07
2.8273e+07
2.82691e+07
2.82649e+07
2.82606e+07
2.8256e+07
2.82512e+07
2.82461e+07
2.82408e+07
2.82352e+07
2.82293e+07
2.82232e+07
2.82167e+07
2.821e+07
2.82031e+07
2.81962e+07
2.81896e+07
2.81836e+07
2.81784e+07
2.8174e+07
2.81702e+07
2.81667e+07
2.81627e+07
2.81581e+07
2.81525e+07
2.81458e+07
2.81386e+07
2.81317e+07
2.81263e+07
2.8124e+07
2.81187e+07
2.81152e+07
2.81173e+07
2.81228e+07
2.81302e+07
2.81381e+07
2.81458e+07
2.81528e+07
2.81593e+07
2.81657e+07
2.81721e+07
2.81789e+07
2.81859e+07
2.81931e+07
2.82004e+07
2.82077e+07
2.82147e+07
2.82215e+07
2.8228e+07
2.82342e+07
2.82401e+07
2.82457e+07
2.8251e+07
2.82561e+07
2.8261e+07
2.82656e+07
2.827e+07
2.82742e+07
2.82781e+07
2.82818e+07
2.82854e+07
2.82887e+07
2.82918e+07
2.82946e+07
2.82973e+07
2.82998e+07
2.83022e+07
2.83043e+07
2.83062e+07
2.8308e+07
2.83096e+07
2.8311e+07
2.83123e+07
2.83134e+07
2.83143e+07
2.83151e+07
2.83157e+07
2.83162e+07
2.83165e+07
2.83167e+07
2.81173e+07
2.81171e+07
2.81168e+07
2.81164e+07
2.81158e+07
2.81151e+07
2.81142e+07
2.81131e+07
2.8112e+07
2.81106e+07
2.81091e+07
2.81074e+07
2.81056e+07
2.81036e+07
2.81014e+07
2.80991e+07
2.80966e+07
2.80939e+07
2.8091e+07
2.80879e+07
2.80847e+07
2.80813e+07
2.80777e+07
2.80739e+07
2.80699e+07
2.80657e+07
2.80613e+07
2.80566e+07
2.80518e+07
2.80467e+07
2.80414e+07
2.80359e+07
2.803e+07
2.8024e+07
2.80177e+07
2.80115e+07
2.80055e+07
2.80001e+07
2.79957e+07
2.79921e+07
2.79893e+07
2.79868e+07
2.79842e+07
2.79811e+07
2.7977e+07
2.79719e+07
2.79661e+07
2.79608e+07
2.79569e+07
2.79559e+07
2.79518e+07
2.7948e+07
2.79484e+07
2.79522e+07
2.79579e+07
2.79644e+07
2.79707e+07
2.79763e+07
2.79813e+07
2.79862e+07
2.79915e+07
2.79971e+07
2.80033e+07
2.80097e+07
2.80163e+07
2.80228e+07
2.80291e+07
2.80352e+07
2.8041e+07
2.80466e+07
2.80519e+07
2.8057e+07
2.80618e+07
2.80665e+07
2.80709e+07
2.80751e+07
2.80791e+07
2.80829e+07
2.80865e+07
2.809e+07
2.80932e+07
2.80963e+07
2.80992e+07
2.81018e+07
2.81044e+07
2.81067e+07
2.81089e+07
2.81109e+07
2.81127e+07
2.81144e+07
2.81159e+07
2.81172e+07
2.81184e+07
2.81195e+07
2.81203e+07
2.81211e+07
2.81217e+07
2.81221e+07
2.81224e+07
2.81226e+07
2.79236e+07
2.79235e+07
2.79232e+07
2.79228e+07
2.79222e+07
2.79215e+07
2.79207e+07
2.79197e+07
2.79186e+07
2.79174e+07
2.7916e+07
2.79145e+07
2.79128e+07
2.79109e+07
2.79089e+07
2.79068e+07
2.79045e+07
2.79021e+07
2.78994e+07
2.78967e+07
2.78938e+07
2.78907e+07
2.78875e+07
2.78841e+07
2.78805e+07
2.78768e+07
2.78729e+07
2.78688e+07
2.78646e+07
2.78602e+07
2.78555e+07
2.78507e+07
2.78456e+07
2.78402e+07
2.78346e+07
2.7829e+07
2.78236e+07
2.78187e+07
2.78147e+07
2.78117e+07
2.78096e+07
2.78083e+07
2.78073e+07
2.78058e+07
2.78033e+07
2.77995e+07
2.7795e+07
2.77909e+07
2.77883e+07
2.77885e+07
2.77855e+07
2.77818e+07
2.77811e+07
2.77835e+07
2.77878e+07
2.7793e+07
2.77979e+07
2.78021e+07
2.78057e+07
2.78092e+07
2.78132e+07
2.78179e+07
2.78232e+07
2.78289e+07
2.78347e+07
2.78404e+07
2.78459e+07
2.78512e+07
2.78563e+07
2.78611e+07
2.78657e+07
2.78701e+07
2.78743e+07
2.78784e+07
2.78822e+07
2.78859e+07
2.78895e+07
2.78929e+07
2.78961e+07
2.78992e+07
2.79021e+07
2.79048e+07
2.79074e+07
2.79099e+07
2.79121e+07
2.79143e+07
2.79163e+07
2.79181e+07
2.79198e+07
2.79213e+07
2.79227e+07
2.79239e+07
2.7925e+07
2.7926e+07
2.79268e+07
2.79275e+07
2.7928e+07
2.79285e+07
2.79287e+07
2.79289e+07
2.77306e+07
2.77304e+07
2.77302e+07
2.77298e+07
2.77293e+07
2.77287e+07
2.77279e+07
2.77271e+07
2.77261e+07
2.77249e+07
2.77237e+07
2.77223e+07
2.77208e+07
2.77191e+07
2.77173e+07
2.77154e+07
2.77134e+07
2.77112e+07
2.77089e+07
2.77065e+07
2.7704e+07
2.77013e+07
2.76985e+07
2.76955e+07
2.76925e+07
2.76893e+07
2.7686e+07
2.76826e+07
2.7679e+07
2.76753e+07
2.76714e+07
2.76673e+07
2.7663e+07
2.76584e+07
2.76536e+07
2.76487e+07
2.76439e+07
2.76396e+07
2.76361e+07
2.76337e+07
2.76325e+07
2.76323e+07
2.76328e+07
2.76328e+07
2.76316e+07
2.76289e+07
2.76255e+07
2.76226e+07
2.76212e+07
2.76222e+07
2.76199e+07
2.76166e+07
2.76152e+07
2.76165e+07
2.76197e+07
2.76237e+07
2.76273e+07
2.76301e+07
2.76323e+07
2.76346e+07
2.76375e+07
2.76412e+07
2.76456e+07
2.76504e+07
2.76553e+07
2.76601e+07
2.76648e+07
2.76692e+07
2.76734e+07
2.76774e+07
2.76812e+07
2.76848e+07
2.76884e+07
2.76918e+07
2.7695e+07
2.76982e+07
2.77012e+07
2.77041e+07
2.77069e+07
2.77095e+07
2.7712e+07
2.77144e+07
2.77167e+07
2.77188e+07
2.77209e+07
2.77228e+07
2.77245e+07
2.77261e+07
2.77276e+07
2.7729e+07
2.77303e+07
2.77314e+07
2.77324e+07
2.77332e+07
2.7734e+07
2.77346e+07
2.77351e+07
2.77355e+07
2.77357e+07
2.77358e+07
2.75382e+07
2.75381e+07
2.75378e+07
2.75375e+07
2.75371e+07
2.75365e+07
2.75358e+07
2.75351e+07
2.75342e+07
2.75332e+07
2.75321e+07
2.75308e+07
2.75295e+07
2.75281e+07
2.75265e+07
2.75249e+07
2.75231e+07
2.75212e+07
2.75193e+07
2.75172e+07
2.75151e+07
2.75128e+07
2.75105e+07
2.7508e+07
2.75055e+07
2.75029e+07
2.75002e+07
2.74975e+07
2.74946e+07
2.74916e+07
2.74885e+07
2.74853e+07
2.74818e+07
2.74782e+07
2.74744e+07
2.74704e+07
2.74665e+07
2.7463e+07
2.74602e+07
2.74585e+07
2.74582e+07
2.74592e+07
2.74608e+07
2.7462e+07
2.74619e+07
2.74603e+07
2.74579e+07
2.7456e+07
2.74556e+07
2.74572e+07
2.74554e+07
2.74523e+07
2.74506e+07
2.74511e+07
2.74534e+07
2.74562e+07
2.74586e+07
2.74601e+07
2.7461e+07
2.74621e+07
2.7464e+07
2.74667e+07
2.74701e+07
2.74739e+07
2.74777e+07
2.74815e+07
2.74851e+07
2.74886e+07
2.74918e+07
2.7495e+07
2.74979e+07
2.75008e+07
2.75036e+07
2.75063e+07
2.75089e+07
2.75115e+07
2.75139e+07
2.75163e+07
2.75186e+07
2.75208e+07
2.75229e+07
2.75249e+07
2.75268e+07
2.75287e+07
2.75304e+07
2.7532e+07
2.75335e+07
2.75349e+07
2.75363e+07
2.75374e+07
2.75385e+07
2.75395e+07
2.75404e+07
2.75412e+07
2.75418e+07
2.75424e+07
2.75428e+07
2.75431e+07
2.75433e+07
2.75435e+07
2.73463e+07
2.73462e+07
2.7346e+07
2.73457e+07
2.73453e+07
2.73448e+07
2.73443e+07
2.73436e+07
2.73428e+07
2.7342e+07
2.7341e+07
2.734e+07
2.73388e+07
2.73376e+07
2.73363e+07
2.73349e+07
2.73334e+07
2.73319e+07
2.73303e+07
2.73286e+07
2.73268e+07
2.7325e+07
2.73231e+07
2.73212e+07
2.73193e+07
2.73172e+07
2.73152e+07
2.73131e+07
2.7311e+07
2.73088e+07
2.73065e+07
2.73042e+07
2.73017e+07
2.72991e+07
2.72964e+07
2.72936e+07
2.72908e+07
2.72884e+07
2.72866e+07
2.7286e+07
2.72866e+07
2.72886e+07
2.72911e+07
2.72933e+07
2.72941e+07
2.72934e+07
2.72919e+07
2.72908e+07
2.72913e+07
2.72932e+07
2.72918e+07
2.72889e+07
2.7287e+07
2.72871e+07
2.72885e+07
2.72904e+07
2.72915e+07
2.72918e+07
2.72915e+07
2.72915e+07
2.72923e+07
2.72939e+07
2.72962e+07
2.72987e+07
2.73014e+07
2.7304e+07
2.73065e+07
2.73089e+07
2.73112e+07
2.73134e+07
2.73155e+07
2.73176e+07
2.73196e+07
2.73216e+07
2.73235e+07
2.73255e+07
2.73273e+07
2.73292e+07
2.7331e+07
2.73327e+07
2.73344e+07
2.7336e+07
2.73376e+07
2.73391e+07
2.73405e+07
2.73419e+07
2.73431e+07
2.73443e+07
2.73454e+07
2.73464e+07
2.73474e+07
2.73482e+07
2.73489e+07
2.73496e+07
2.73502e+07
2.73506e+07
2.7351e+07
2.73513e+07
2.73515e+07
2.73516e+07
2.71548e+07
2.71547e+07
2.71545e+07
2.71543e+07
2.71539e+07
2.71535e+07
2.7153e+07
2.71525e+07
2.71518e+07
2.71511e+07
2.71503e+07
2.71494e+07
2.71485e+07
2.71475e+07
2.71464e+07
2.71453e+07
2.71441e+07
2.71429e+07
2.71416e+07
2.71403e+07
2.7139e+07
2.71376e+07
2.71362e+07
2.71348e+07
2.71334e+07
2.7132e+07
2.71306e+07
2.71292e+07
2.71278e+07
2.71264e+07
2.7125e+07
2.71236e+07
2.71222e+07
2.71207e+07
2.71192e+07
2.71176e+07
2.71163e+07
2.71152e+07
2.71148e+07
2.71153e+07
2.7117e+07
2.71198e+07
2.71231e+07
2.71261e+07
2.71277e+07
2.7128e+07
2.71273e+07
2.71269e+07
2.7128e+07
2.713e+07
2.71289e+07
2.71262e+07
2.71243e+07
2.7124e+07
2.71248e+07
2.71257e+07
2.71257e+07
2.71248e+07
2.71234e+07
2.71224e+07
2.7122e+07
2.71224e+07
2.71233e+07
2.71246e+07
2.71259e+07
2.71273e+07
2.71286e+07
2.71299e+07
2.71311e+07
2.71323e+07
2.71336e+07
2.71348e+07
2.7136e+07
2.71373e+07
2.71386e+07
2.71399e+07
2.71412e+07
2.71425e+07
2.71438e+07
2.71451e+07
2.71463e+07
2.71475e+07
2.71487e+07
2.71499e+07
2.7151e+07
2.71521e+07
2.71531e+07
2.71541e+07
2.71549e+07
2.71558e+07
2.71565e+07
2.71572e+07
2.71578e+07
2.71584e+07
2.71589e+07
2.71593e+07
2.71596e+07
2.71598e+07
2.716e+07
2.716e+07
2.69635e+07
2.69634e+07
2.69633e+07
2.69631e+07
2.69628e+07
2.69625e+07
2.69621e+07
2.69616e+07
2.69611e+07
2.69605e+07
2.69599e+07
2.69592e+07
2.69584e+07
2.69577e+07
2.69568e+07
2.6956e+07
2.69551e+07
2.69542e+07
2.69533e+07
2.69523e+07
2.69514e+07
2.69505e+07
2.69495e+07
2.69487e+07
2.69478e+07
2.6947e+07
2.69462e+07
2.69455e+07
2.69449e+07
2.69443e+07
2.69438e+07
2.69433e+07
2.6943e+07
2.69426e+07
2.69424e+07
2.69422e+07
2.69423e+07
2.69428e+07
2.69438e+07
2.69457e+07
2.69485e+07
2.69522e+07
2.69564e+07
2.69601e+07
2.69626e+07
2.69638e+07
2.69638e+07
2.69639e+07
2.69652e+07
2.69672e+07
2.69663e+07
2.6964e+07
2.69622e+07
2.69617e+07
2.6962e+07
2.69621e+07
2.6961e+07
2.6959e+07
2.69565e+07
2.69543e+07
2.69527e+07
2.69517e+07
2.69512e+07
2.69509e+07
2.69509e+07
2.69509e+07
2.6951e+07
2.69511e+07
2.69513e+07
2.69515e+07
2.69518e+07
2.69522e+07
2.69527e+07
2.69533e+07
2.69539e+07
2.69545e+07
2.69552e+07
2.6956e+07
2.69568e+07
2.69576e+07
2.69585e+07
2.69593e+07
2.69601e+07
2.6961e+07
2.69618e+07
2.69626e+07
2.69633e+07
2.6964e+07
2.69647e+07
2.69654e+07
2.6966e+07
2.69665e+07
2.6967e+07
2.69674e+07
2.69678e+07
2.69681e+07
2.69684e+07
2.69686e+07
2.69687e+07
2.69687e+07
2.67723e+07
2.67723e+07
2.67722e+07
2.6772e+07
2.67718e+07
2.67715e+07
2.67712e+07
2.67709e+07
2.67705e+07
2.677e+07
2.67696e+07
2.6769e+07
2.67685e+07
2.67679e+07
2.67674e+07
2.67668e+07
2.67662e+07
2.67656e+07
2.6765e+07
2.67644e+07
2.67639e+07
2.67634e+07
2.6763e+07
2.67626e+07
2.67623e+07
2.6762e+07
2.67619e+07
2.67619e+07
2.6762e+07
2.67623e+07
2.67626e+07
2.67631e+07
2.67638e+07
2.67647e+07
2.67657e+07
2.6767e+07
2.67686e+07
2.67706e+07
2.67732e+07
2.67765e+07
2.67806e+07
2.67854e+07
2.67904e+07
2.6795e+07
2.67984e+07
2.68004e+07
2.68011e+07
2.68015e+07
2.68028e+07
2.68046e+07
2.68039e+07
2.6802e+07
2.68004e+07
2.67999e+07
2.67998e+07
2.67991e+07
2.67971e+07
2.6794e+07
2.67904e+07
2.6787e+07
2.6784e+07
2.67815e+07
2.67794e+07
2.67776e+07
2.6776e+07
2.67746e+07
2.67734e+07
2.67724e+07
2.67715e+07
2.67708e+07
2.67702e+07
2.67697e+07
2.67694e+07
2.67692e+07
2.67692e+07
2.67692e+07
2.67694e+07
2.67696e+07
2.67699e+07
2.67703e+07
2.67707e+07
2.67711e+07
2.67716e+07
2.67721e+07
2.67726e+07
2.67731e+07
2.67737e+07
2.67742e+07
2.67746e+07
2.67751e+07
2.67755e+07
2.67759e+07
2.67763e+07
2.67766e+07
2.67769e+07
2.67771e+07
2.67773e+07
2.67775e+07
2.67776e+07
2.67776e+07
2.65813e+07
2.65813e+07
2.65812e+07
2.65811e+07
2.65809e+07
2.65807e+07
2.65805e+07
2.65803e+07
2.658e+07
2.65797e+07
2.65794e+07
2.6579e+07
2.65787e+07
2.65783e+07
2.6578e+07
2.65776e+07
2.65773e+07
2.6577e+07
2.65768e+07
2.65766e+07
2.65764e+07
2.65763e+07
2.65764e+07
2.65765e+07
2.65767e+07
2.65771e+07
2.65776e+07
2.65782e+07
2.65791e+07
2.65801e+07
2.65814e+07
2.65829e+07
2.65846e+07
2.65866e+07
2.65889e+07
2.65916e+07
2.65947e+07
2.65983e+07
2.66024e+07
2.66073e+07
2.66129e+07
2.66189e+07
2.66251e+07
2.66306e+07
2.66349e+07
2.66377e+07
2.6639e+07
2.66397e+07
2.66408e+07
2.66422e+07
2.66417e+07
2.66403e+07
2.6639e+07
2.66385e+07
2.66381e+07
2.66367e+07
2.66338e+07
2.66297e+07
2.6625e+07
2.66201e+07
2.66155e+07
2.66114e+07
2.66076e+07
2.66042e+07
2.66011e+07
2.65983e+07
2.65959e+07
2.65936e+07
2.65917e+07
2.65899e+07
2.65884e+07
2.65872e+07
2.65861e+07
2.65852e+07
2.65845e+07
2.65839e+07
2.65835e+07
2.65832e+07
2.6583e+07
2.6583e+07
2.6583e+07
2.6583e+07
2.65832e+07
2.65833e+07
2.65836e+07
2.65838e+07
2.65841e+07
2.65844e+07
2.65846e+07
2.65849e+07
2.65852e+07
2.65854e+07
2.65857e+07
2.65859e+07
2.65861e+07
2.65862e+07
2.65864e+07
2.65865e+07
2.65865e+07
2.65866e+07
2.63904e+07
2.63904e+07
2.63903e+07
2.63902e+07
2.63901e+07
2.639e+07
2.63899e+07
2.63897e+07
2.63895e+07
2.63894e+07
2.63892e+07
2.6389e+07
2.63889e+07
2.63887e+07
2.63886e+07
2.63885e+07
2.63885e+07
2.63885e+07
2.63885e+07
2.63887e+07
2.63889e+07
2.63892e+07
2.63897e+07
2.63903e+07
2.63911e+07
2.6392e+07
2.63931e+07
2.63945e+07
2.6396e+07
2.63979e+07
2.64e+07
2.64024e+07
2.64052e+07
2.64083e+07
2.64119e+07
2.64159e+07
2.64204e+07
2.64256e+07
2.64314e+07
2.64378e+07
2.6445e+07
2.64526e+07
2.64601e+07
2.64667e+07
2.6472e+07
2.64756e+07
2.64774e+07
2.64783e+07
2.64792e+07
2.64802e+07
2.64799e+07
2.64789e+07
2.64779e+07
2.64774e+07
2.64767e+07
2.64747e+07
2.6471e+07
2.6466e+07
2.64599e+07
2.64535e+07
2.64471e+07
2.64411e+07
2.64356e+07
2.64306e+07
2.6426e+07
2.64218e+07
2.64181e+07
2.64147e+07
2.64116e+07
2.64089e+07
2.64065e+07
2.64044e+07
2.64026e+07
2.6401e+07
2.63996e+07
2.63985e+07
2.63975e+07
2.63967e+07
2.63961e+07
2.63956e+07
2.63952e+07
2.63949e+07
2.63947e+07
2.63946e+07
2.63945e+07
2.63945e+07
2.63945e+07
2.63946e+07
2.63947e+07
2.63948e+07
2.63949e+07
2.6395e+07
2.63951e+07
2.63952e+07
2.63953e+07
2.63954e+07
2.63955e+07
2.63956e+07
2.63956e+07
2.63956e+07
2.61995e+07
2.61995e+07
2.61994e+07
2.61994e+07
2.61994e+07
2.61993e+07
2.61993e+07
2.61992e+07
2.61991e+07
2.61991e+07
2.61991e+07
2.61991e+07
2.61991e+07
2.61991e+07
2.61992e+07
2.61994e+07
2.61996e+07
2.61999e+07
2.62002e+07
2.62007e+07
2.62013e+07
2.62021e+07
2.62029e+07
2.6204e+07
2.62053e+07
2.62067e+07
2.62085e+07
2.62104e+07
2.62127e+07
2.62153e+07
2.62183e+07
2.62216e+07
2.62254e+07
2.62296e+07
2.62344e+07
2.62397e+07
2.62457e+07
2.62523e+07
2.62597e+07
2.62679e+07
2.62767e+07
2.6286e+07
2.62952e+07
2.63032e+07
2.63095e+07
2.63138e+07
2.63162e+07
2.63174e+07
2.63181e+07
2.63188e+07
2.63186e+07
2.63179e+07
2.63171e+07
2.63166e+07
2.63155e+07
2.6313e+07
2.63086e+07
2.63025e+07
2.6295e+07
2.62867e+07
2.62784e+07
2.62706e+07
2.62633e+07
2.62566e+07
2.62505e+07
2.6245e+07
2.62399e+07
2.62354e+07
2.62313e+07
2.62276e+07
2.62244e+07
2.62215e+07
2.62189e+07
2.62166e+07
2.62146e+07
2.62129e+07
2.62114e+07
2.62101e+07
2.62091e+07
2.62081e+07
2.62074e+07
2.62067e+07
2.62062e+07
2.62058e+07
2.62054e+07
2.62052e+07
2.6205e+07
2.62048e+07
2.62047e+07
2.62046e+07
2.62046e+07
2.62046e+07
2.62046e+07
2.62046e+07
2.62046e+07
2.62046e+07
2.62047e+07
2.62047e+07
2.62047e+07
2.62047e+07
2.60086e+07
2.60086e+07
2.60086e+07
2.60086e+07
2.60086e+07
2.60086e+07
2.60087e+07
2.60087e+07
2.60088e+07
2.60088e+07
2.60089e+07
2.60091e+07
2.60093e+07
2.60095e+07
2.60098e+07
2.60102e+07
2.60106e+07
2.60112e+07
2.60119e+07
2.60127e+07
2.60136e+07
2.60147e+07
2.6016e+07
2.60175e+07
2.60193e+07
2.60213e+07
2.60236e+07
2.60262e+07
2.60291e+07
2.60325e+07
2.60362e+07
2.60404e+07
2.60452e+07
2.60505e+07
2.60564e+07
2.6063e+07
2.60703e+07
2.60784e+07
2.60874e+07
2.60973e+07
2.61079e+07
2.61191e+07
2.61302e+07
2.61398e+07
2.61473e+07
2.61524e+07
2.61555e+07
2.61569e+07
2.61576e+07
2.61581e+07
2.6158e+07
2.61574e+07
2.61567e+07
2.61561e+07
2.61547e+07
2.61516e+07
2.61464e+07
2.61391e+07
2.61299e+07
2.61196e+07
2.61093e+07
2.60995e+07
2.60904e+07
2.60821e+07
2.60745e+07
2.60676e+07
2.60613e+07
2.60557e+07
2.60506e+07
2.6046e+07
2.60418e+07
2.60382e+07
2.60349e+07
2.6032e+07
2.60294e+07
2.60271e+07
2.60251e+07
2.60234e+07
2.60219e+07
2.60205e+07
2.60194e+07
2.60184e+07
2.60176e+07
2.60169e+07
2.60163e+07
2.60158e+07
2.60154e+07
2.6015e+07
2.60147e+07
2.60145e+07
2.60143e+07
2.60142e+07
2.60141e+07
2.6014e+07
2.60139e+07
2.60139e+07
2.60139e+07
2.60138e+07
2.60138e+07
2.60138e+07
2.58178e+07
2.58178e+07
2.58178e+07
2.58179e+07
2.58179e+07
2.5818e+07
2.58181e+07
2.58182e+07
2.58184e+07
2.58186e+07
2.58188e+07
2.58191e+07
2.58194e+07
2.58198e+07
2.58203e+07
2.58209e+07
2.58216e+07
2.58224e+07
2.58234e+07
2.58245e+07
2.58258e+07
2.58273e+07
2.58289e+07
2.58309e+07
2.58331e+07
2.58356e+07
2.58384e+07
2.58416e+07
2.58452e+07
2.58492e+07
2.58537e+07
2.58587e+07
2.58644e+07
2.58707e+07
2.58777e+07
2.58855e+07
2.58941e+07
2.59037e+07
2.59143e+07
2.59258e+07
2.59384e+07
2.59516e+07
2.59648e+07
2.59764e+07
2.59852e+07
2.59914e+07
2.59951e+07
2.59969e+07
2.59977e+07
2.59982e+07
2.5998e+07
2.59975e+07
2.59968e+07
2.5996e+07
2.59942e+07
2.59905e+07
2.59844e+07
2.59757e+07
2.59645e+07
2.5952e+07
2.59395e+07
2.59277e+07
2.59168e+07
2.59069e+07
2.58978e+07
2.58896e+07
2.58821e+07
2.58754e+07
2.58693e+07
2.58638e+07
2.58589e+07
2.58545e+07
2.58506e+07
2.5847e+07
2.58439e+07
2.58411e+07
2.58386e+07
2.58364e+07
2.58345e+07
2.58328e+07
2.58313e+07
2.583e+07
2.58289e+07
2.58279e+07
2.58271e+07
2.58263e+07
2.58257e+07
2.58252e+07
2.58247e+07
2.58244e+07
2.58241e+07
2.58238e+07
2.58236e+07
2.58234e+07
2.58233e+07
2.58231e+07
2.58231e+07
2.5823e+07
2.5823e+07
2.58229e+07
2.5627e+07
2.5627e+07
2.5627e+07
2.56271e+07
2.56272e+07
2.56273e+07
2.56275e+07
2.56277e+07
2.5628e+07
2.56283e+07
2.56286e+07
2.5629e+07
2.56295e+07
2.56301e+07
2.56308e+07
2.56316e+07
2.56325e+07
2.56336e+07
2.56348e+07
2.56362e+07
2.56378e+07
2.56396e+07
2.56416e+07
2.56439e+07
2.56466e+07
2.56495e+07
2.56528e+07
2.56566e+07
2.56608e+07
2.56654e+07
2.56707e+07
2.56765e+07
2.5683e+07
2.56902e+07
2.56983e+07
2.57072e+07
2.57171e+07
2.5728e+07
2.57401e+07
2.57533e+07
2.57678e+07
2.57832e+07
2.57987e+07
2.58125e+07
2.58232e+07
2.58305e+07
2.58351e+07
2.58373e+07
2.58384e+07
2.58388e+07
2.58387e+07
2.58382e+07
2.58374e+07
2.58363e+07
2.5834e+07
2.58295e+07
2.58223e+07
2.58118e+07
2.57983e+07
2.57834e+07
2.57687e+07
2.57549e+07
2.57423e+07
2.57308e+07
2.57203e+07
2.57109e+07
2.57023e+07
2.56945e+07
2.56875e+07
2.56812e+07
2.56755e+07
2.56704e+07
2.56658e+07
2.56617e+07
2.5658e+07
2.56548e+07
2.56518e+07
2.56492e+07
2.56469e+07
2.56449e+07
2.56431e+07
2.56415e+07
2.56401e+07
2.56388e+07
2.56378e+07
2.56368e+07
2.5636e+07
2.56353e+07
2.56347e+07
2.56342e+07
2.56337e+07
2.56334e+07
2.5633e+07
2.56328e+07
2.56326e+07
2.56324e+07
2.56323e+07
2.56322e+07
2.56321e+07
2.56321e+07
2.54361e+07
2.54362e+07
2.54362e+07
2.54363e+07
2.54365e+07
2.54367e+07
2.54369e+07
2.54372e+07
2.54375e+07
2.54379e+07
2.54384e+07
2.54389e+07
2.54396e+07
2.54403e+07
2.54412e+07
2.54422e+07
2.54433e+07
2.54446e+07
2.5446e+07
2.54477e+07
2.54495e+07
2.54517e+07
2.54541e+07
2.54567e+07
2.54598e+07
2.54631e+07
2.54669e+07
2.54712e+07
2.54759e+07
2.54812e+07
2.54871e+07
2.54936e+07
2.55009e+07
2.5509e+07
2.5518e+07
2.55279e+07
2.5539e+07
2.55512e+07
2.55648e+07
2.55796e+07
2.55959e+07
2.56135e+07
2.56315e+07
2.56481e+07
2.56609e+07
2.56698e+07
2.56754e+07
2.56783e+07
2.56796e+07
2.56802e+07
2.56801e+07
2.56795e+07
2.56786e+07
2.56772e+07
2.56743e+07
2.56687e+07
2.566e+07
2.56473e+07
2.56311e+07
2.56136e+07
2.55967e+07
2.5581e+07
2.55667e+07
2.55537e+07
2.55419e+07
2.55312e+07
2.55216e+07
2.55129e+07
2.5505e+07
2.54979e+07
2.54915e+07
2.54858e+07
2.54806e+07
2.5476e+07
2.54718e+07
2.54681e+07
2.54647e+07
2.54617e+07
2.54591e+07
2.54567e+07
2.54546e+07
2.54527e+07
2.54511e+07
2.54496e+07
2.54483e+07
2.54472e+07
2.54462e+07
2.54453e+07
2.54446e+07
2.54439e+07
2.54434e+07
2.54429e+07
2.54425e+07
2.54421e+07
2.54418e+07
2.54416e+07
2.54414e+07
2.54413e+07
2.54412e+07
2.54412e+07
2.52453e+07
2.52453e+07
2.52454e+07
2.52455e+07
2.52457e+07
2.5246e+07
2.52462e+07
2.52466e+07
2.5247e+07
2.52475e+07
2.52481e+07
2.52488e+07
2.52495e+07
2.52504e+07
2.52514e+07
2.52526e+07
2.52539e+07
2.52554e+07
2.52571e+07
2.5259e+07
2.52611e+07
2.52635e+07
2.52662e+07
2.52692e+07
2.52726e+07
2.52764e+07
2.52806e+07
2.52853e+07
2.52905e+07
2.52963e+07
2.53028e+07
2.531e+07
2.5318e+07
2.53269e+07
2.53367e+07
2.53476e+07
2.53598e+07
2.53732e+07
2.53881e+07
2.54045e+07
2.54226e+07
2.54423e+07
2.54629e+07
2.54825e+07
2.54981e+07
2.5509e+07
2.55162e+07
2.55199e+07
2.55216e+07
2.55223e+07
2.55222e+07
2.55216e+07
2.55205e+07
2.55186e+07
2.55149e+07
2.55079e+07
2.54972e+07
2.54818e+07
2.54625e+07
2.54424e+07
2.54232e+07
2.54057e+07
2.53898e+07
2.53754e+07
2.53624e+07
2.53506e+07
2.534e+07
2.53304e+07
2.53218e+07
2.5314e+07
2.5307e+07
2.53006e+07
2.52949e+07
2.52898e+07
2.52852e+07
2.5281e+07
2.52773e+07
2.5274e+07
2.5271e+07
2.52683e+07
2.52659e+07
2.52638e+07
2.52619e+07
2.52602e+07
2.52588e+07
2.52574e+07
2.52563e+07
2.52553e+07
2.52544e+07
2.52536e+07
2.52529e+07
2.52523e+07
2.52518e+07
2.52514e+07
2.52511e+07
2.52508e+07
2.52506e+07
2.52504e+07
2.52503e+07
2.52503e+07
2.50544e+07
2.50544e+07
2.50545e+07
2.50547e+07
2.50549e+07
2.50552e+07
2.50556e+07
2.5056e+07
2.50565e+07
2.50571e+07
2.50577e+07
2.50585e+07
2.50594e+07
2.50604e+07
2.50616e+07
2.50629e+07
2.50644e+07
2.50661e+07
2.50679e+07
2.507e+07
2.50724e+07
2.50751e+07
2.5078e+07
2.50814e+07
2.50851e+07
2.50892e+07
2.50938e+07
2.50989e+07
2.51045e+07
2.51108e+07
2.51178e+07
2.51256e+07
2.51342e+07
2.51438e+07
2.51544e+07
2.51662e+07
2.51792e+07
2.51937e+07
2.52098e+07
2.52276e+07
2.52474e+07
2.52691e+07
2.52924e+07
2.53154e+07
2.53344e+07
2.53479e+07
2.5357e+07
2.5362e+07
2.53642e+07
2.53651e+07
2.53651e+07
2.53644e+07
2.53631e+07
2.53608e+07
2.53558e+07
2.53468e+07
2.53335e+07
2.53146e+07
2.5292e+07
2.52692e+07
2.5248e+07
2.52287e+07
2.52113e+07
2.51957e+07
2.51816e+07
2.51689e+07
2.51574e+07
2.5147e+07
2.51377e+07
2.51293e+07
2.51217e+07
2.51148e+07
2.51087e+07
2.51031e+07
2.50981e+07
2.50936e+07
2.50895e+07
2.50859e+07
2.50826e+07
2.50796e+07
2.5077e+07
2.50747e+07
2.50726e+07
2.50707e+07
2.5069e+07
2.50675e+07
2.50662e+07
2.50651e+07
2.50641e+07
2.50632e+07
2.50624e+07
2.50617e+07
2.50612e+07
2.50607e+07
2.50603e+07
2.50599e+07
2.50597e+07
2.50595e+07
2.50594e+07
2.50593e+07
2.48635e+07
2.48635e+07
2.48637e+07
2.48638e+07
2.48641e+07
2.48644e+07
2.48648e+07
2.48653e+07
2.48659e+07
2.48665e+07
2.48673e+07
2.48682e+07
2.48692e+07
2.48703e+07
2.48716e+07
2.4873e+07
2.48747e+07
2.48765e+07
2.48786e+07
2.48809e+07
2.48835e+07
2.48863e+07
2.48896e+07
2.48931e+07
2.48971e+07
2.49015e+07
2.49064e+07
2.49119e+07
2.4918e+07
2.49247e+07
2.49321e+07
2.49404e+07
2.49495e+07
2.49597e+07
2.49709e+07
2.49834e+07
2.49973e+07
2.50127e+07
2.50298e+07
2.50489e+07
2.50701e+07
2.50936e+07
2.51193e+07
2.51458e+07
2.51691e+07
2.5186e+07
2.51978e+07
2.52047e+07
2.52076e+07
2.52087e+07
2.52088e+07
2.52081e+07
2.52065e+07
2.52034e+07
2.51966e+07
2.5185e+07
2.51682e+07
2.51451e+07
2.51189e+07
2.50937e+07
2.50706e+07
2.50498e+07
2.50312e+07
2.50145e+07