/*--------------------------------*- C++ -*----------------------------------*\
  =========                 |
  \\      /  F ield         | OpenFOAM: The Open Source CFD Toolbox
   \\    /   O peration     | Website:  https://openfoam.org
    \\  /    A nd           | Version:  7
     \\/     M anipulation  |
\*---------------------------------------------------------------------------*/
FoamFile
{
    version     2.0;
    format      ascii;
    class       surfaceScalarField;
    location    "6825600000";
    object      phi;
}
// * * * * * * * * * * * * * * * * * * * * * * * * * * * * * * * * * * * * * //

dimensions      [1 0 -1 0 0 0 0];

internalField   nonuniform List<scalar> 
9850
(
1.17388e-05
-1.1645e-05
2.35042e-05
-1.16716e-05
3.53241e-05
-1.17262e-05
4.72268e-05
-1.18093e-05
5.92431e-05
-1.1923e-05
7.14056e-05
-1.20696e-05
8.37504e-05
-1.22521e-05
9.63167e-05
-1.24742e-05
0.000109149
-1.27408e-05
0.000122299
-1.30585e-05
0.000135825
-1.34353e-05
0.000149795
-1.3881e-05
0.000164291
-1.44068e-05
0.000179401
-1.50218e-05
0.000195231
-1.57435e-05
0.000211912
-1.65951e-05
0.000229575
-1.75794e-05
0.000248374
-1.87158e-05
0.000268475
-2.00202e-05
0.000290059
-2.15052e-05
0.000313316
-2.31807e-05
0.000338441
-2.50516e-05
0.000365557
-2.7046e-05
0.00039495
-2.93252e-05
0.000426803
-3.17898e-05
0.000461247
-3.43856e-05
0.000498417
-3.71179e-05
0.000538434
-3.99695e-05
0.000581383
-4.29083e-05
0.000627324
-4.59068e-05
0.000676308
-4.8957e-05
0.000728399
-5.20706e-05
0.000783679
-5.52659e-05
0.000842164
-5.84765e-05
0.000903586
-6.14161e-05
0.000968903
-6.52738e-05
0.00104299
-7.3934e-05
0.00112926
-8.59666e-05
0.00122869
-9.88772e-05
0.00134505
-0.000115522
0.00146606
-0.000119773
0.00163984
-0.000175269
0.00159917
5.58093e-05
0.00184211
-0.000222224
0.00217092
-0.000331865
0.00162333
0.000532633
0.00130622
0.000319825
0.00117851
0.000133252
0.00104742
0.000133583
-0.00131825
0.00236317
-0.0025449
0.00120711
-0.00167003
-0.000888174
-0.000514743
-0.0011571
-0.000957702
0.000497098
-0.00206655
0.00110049
-0.0021933
4.57783e-05
-0.00153801
-0.00064904
-0.0014416
-7.69016e-05
-0.00152936
8.09486e-05
-0.00132066
-0.000208945
-0.00123386
-8.59825e-05
-0.00114523
-8.85966e-05
-0.00106671
-7.85158e-05
-0.000994467
-7.23031e-05
-0.000925821
-6.86994e-05
-0.000860798
-6.50582e-05
-0.000799551
-6.12657e-05
-0.000741976
-5.75807e-05
-0.000687915
-5.40547e-05
-0.00063725
-5.06495e-05
-0.000589889
-4.73349e-05
-0.00054575
-4.41048e-05
-0.000504732
-4.09771e-05
-0.000466705
-3.79781e-05
-0.000431522
-3.51286e-05
-0.000399031
-3.24316e-05
-0.00036909
-2.98767e-05
-0.000341463
-2.75588e-05
-0.000315903
-2.54879e-05
-0.000292263
-2.35653e-05
-0.000270343
-2.1843e-05
-0.000249947
-2.03164e-05
-0.000230891
-1.89746e-05
-0.000213004
-1.78045e-05
-0.00019613
-1.67892e-05
-0.000180135
-1.59089e-05
-0.000164882
-1.51659e-05
-0.000150267
-1.45271e-05
-0.000136196
-1.39819e-05
-0.000122587
-1.35192e-05
-0.000109369
-1.31274e-05
-9.64815e-05
-1.27966e-05
-8.38712e-05
-1.25186e-05
-7.14921e-05
-1.22869e-05
-5.93033e-05
-1.20963e-05
-4.72676e-05
-1.19429e-05
-3.53508e-05
-1.18238e-05
-2.35207e-05
-1.17368e-05
-1.1747e-05
-1.16803e-05
-1.16536e-05
1.02269e-05
-2.16905e-05
2.04769e-05
-2.17405e-05
3.07725e-05
-2.18409e-05
4.11368e-05
-2.19931e-05
5.15937e-05
-2.21999e-05
6.21683e-05
-2.24651e-05
7.2887e-05
-2.27925e-05
8.37777e-05
-2.31877e-05
9.48704e-05
-2.36575e-05
0.000106197
-2.42106e-05
0.000117793
-2.48579e-05
0.000129695
-2.5612e-05
0.000141945
-2.6487e-05
0.000154587
-2.74976e-05
0.000167673
-2.86649e-05
0.000181249
-3.00093e-05
0.000195373
-3.15445e-05
0.000210102
-3.32894e-05
0.000225494
-3.52609e-05
0.000241608
-3.74721e-05
0.000258501
-3.99313e-05
0.000276226
-4.26403e-05
0.000294849
-4.55376e-05
0.000314403
-4.87534e-05
0.000334929
-5.2198e-05
0.000356466
-5.58128e-05
0.000379041
-5.95906e-05
0.000402675
-6.3509e-05
0.000427392
-6.75391e-05
0.000453235
-7.16708e-05
0.000480285
-7.59341e-05
0.000508692
-8.04075e-05
0.000538728
-8.52302e-05
0.000570928
-9.0596e-05
0.000606476
-9.68574e-05
0.000647054
-0.000105664
0.000693217
-0.000119756
0.000745207
-0.000137487
0.000802483
-0.000155547
0.000860687
-0.000173043
0.000923389
-0.000181823
0.000938664
-0.000190207
0.0011292
-0.000132028
0.00114204
-0.000234288
0.0009787
-0.00017861
0.00139538
0.000123102
0.00167916
4.60248e-05
0.00187944
-6.32167e-05
0.0020773
-6.67605e-05
-0.00107156
0.00551574
-0.00117299
0.0012731
-0.00151898
-0.000549567
-0.00201013
-0.000662145
-0.0014939
2.05211e-05
-0.0010029
0.000622095
-0.00105083
6.8439e-05
-0.00121948
-0.000482194
-0.00104367
-0.000249622
-0.000844089
-0.000117599
-0.000856195
-0.000196902
-0.000790117
-0.000151674
-0.000741499
-0.000136955
-0.000695894
-0.000123931
-0.000654686
-0.000113419
-0.000617293
-0.000106047
-0.00058254
-9.9777e-05
-0.000549803
-9.39674e-05
-0.000518782
-8.85627e-05
-0.000489283
-8.35064e-05
-0.000461169
-7.87076e-05
-0.000434343
-7.40943e-05
-0.000408746
-6.96253e-05
-0.000384337
-6.52997e-05
-0.000361083
-6.11368e-05
-0.00033895
-5.71573e-05
-0.000317898
-5.33697e-05
-0.000297878
-4.9775e-05
-0.000278849
-4.64615e-05
-0.00026076
-4.34428e-05
-0.000243547
-4.06394e-05
-0.00022715
-3.80952e-05
-0.000211509
-3.58082e-05
-0.000196562
-3.37685e-05
-0.000182248
-3.1962e-05
-0.000168506
-3.0371e-05
-0.000155276
-2.89764e-05
-0.00014251
-2.77656e-05
-0.000130155
-2.67143e-05
-0.000118163
-2.58036e-05
-0.000106492
-2.50181e-05
-9.51025e-05
-2.43432e-05
-8.39581e-05
-2.37659e-05
-7.3025e-05
-2.32752e-05
-6.22721e-05
-2.28622e-05
-5.16701e-05
-2.25197e-05
-4.11915e-05
-2.22422e-05
-3.08099e-05
-2.20255e-05
-2.05001e-05
-2.18662e-05
-1.0238e-05
-2.17617e-05
-2.17107e-05
8.34884e-06
-2.98228e-05
1.67157e-05
-2.9891e-05
2.51185e-05
-3.00277e-05
3.35752e-05
-3.02344e-05
4.21042e-05
-3.05142e-05
5.0724e-05
-3.0871e-05
5.94535e-05
-3.13094e-05
6.83123e-05
-3.18352e-05
7.73203e-05
-3.24558e-05
8.64976e-05
-3.31801e-05
9.58645e-05
-3.4019e-05
0.000105441
-3.49849e-05
0.000115247
-3.60919e-05
0.000125302
-3.73552e-05
0.000135626
-3.87931e-05
0.000146231
-4.04232e-05
0.000157135
-4.22609e-05
0.000168351
-4.43225e-05
0.000179891
-4.66224e-05
0.000191764
-4.91716e-05
0.000203976
-5.19762e-05
0.000216533
-5.50358e-05
0.000229487
-5.83361e-05
0.000242795
-6.19134e-05
0.00025647
-6.57317e-05
0.000270548
-6.97586e-05
0.000285062
-7.39792e-05
0.000300049
-7.83791e-05
0.000315569
-8.29493e-05
0.000331707
-8.77041e-05
0.000348575
-9.27017e-05
0.000366328
-9.80584e-05
0.000385184
-0.000103976
0.000405504
-0.000110785
0.000427904
-0.000119087
0.00045261
-0.000130126
0.000478454
-0.000145267
0.000506401
-0.000165031
0.00053874
-0.000187478
0.000576017
-0.000209993
0.000619551
-0.00022522
0.000658842
-0.000229647
0.000742964
-0.000216509
0.000743071
-0.000235402
0.000758582
-0.000195774
0.000996704
-0.000114248
0.00116725
-0.000124422
0.00124079
-0.000138427
0.00123531
-6.55055e-05
8.81426e-06
0.00670916
-0.000730449
0.00200132
-0.00113193
-0.000154195
-0.00142342
-0.000370647
-0.00126389
-0.000132566
-0.000730196
9.74538e-05
-0.000577541
-8.79397e-05
-0.00072294
-0.000338109
-0.000689224
-0.000283381
-0.000586675
-0.000219991
-0.000571152
-0.000212411
-0.000536776
-0.000185873
-0.000507275
-0.000166239
-0.000480281
-0.000150711
-0.000455212
-0.000138324
-0.000432361
-0.000128777
-0.000411189
-0.000120855
-0.000391237
-0.000113839
-0.000372286
-0.000107438
-0.000354215
-0.0001015
-0.000336923
-9.59161e-05
-0.000320321
-9.0606e-05
-0.000304329
-8.55179e-05
-0.000288885
-8.06345e-05
-0.000273946
-7.59588e-05
-0.000259476
-7.15002e-05
-0.000245443
-6.72669e-05
-0.000231805
-6.32698e-05
-0.000218571
-5.95445e-05
-0.000205752
-5.61042e-05
-0.000193306
-5.29212e-05
-0.000181224
-5.00062e-05
-0.000169499
-4.73579e-05
-0.000158118
-4.49685e-05
-0.000147069
-4.2826e-05
-0.000136335
-4.0915e-05
-0.0001259
-3.92189e-05
-0.000115747
-3.7722e-05
-0.000105856
-3.64054e-05
-9.62063e-05
-3.52509e-05
-8.67768e-05
-3.42428e-05
-7.75462e-05
-3.33668e-05
-6.84932e-05
-3.261e-05
-5.95966e-05
-3.19613e-05
-5.08355e-05
-3.14114e-05
-4.21893e-05
-3.09527e-05
-3.36382e-05
-3.05792e-05
-2.51625e-05
-3.02862e-05
-1.67434e-05
-3.00698e-05
-8.362e-06
-2.99272e-05
-2.98566e-05
6.3533e-06
-3.59643e-05
1.27193e-05
-3.60454e-05
1.91109e-05
-3.6208e-05
2.5541e-05
-3.64538e-05
3.20222e-05
-3.67855e-05
3.85672e-05
-3.72071e-05
4.51884e-05
-3.7723e-05
5.18983e-05
-3.83389e-05
5.8709e-05
-3.90618e-05
6.56319e-05
-3.99002e-05
7.26773e-05
-4.08638e-05
7.98543e-05
-4.19637e-05
8.71705e-05
-4.32125e-05
9.46315e-05
-4.46237e-05
0.00010224
-4.62122e-05
0.000109995
-4.79927e-05
0.000117895
-4.99792e-05
0.000125935
-5.21853e-05
0.000134108
-5.4623e-05
0.000142406
-5.73021e-05
0.000150821
-6.02287e-05
0.000159347
-6.34054e-05
0.000167993
-6.68318e-05
0.000176738
-7.0515e-05
0.000185586
-7.44424e-05
0.000194556
-7.85989e-05
0.000203673
-8.29733e-05
0.000212967
-8.75563e-05
0.000222473
-9.23443e-05
0.000232224
-9.73482e-05
0.000242234
-0.000102607
0.000252487
-0.000108204
0.000262939
-0.000114311
0.00027357
-0.000121281
0.000284517
-0.000129866
0.000296174
-0.000141577
0.00030961
-0.000158465
0.000327449
-0.000182655
0.000353465
-0.00021339
0.000387896
-0.000244563
0.000427816
-0.000265652
0.000469069
-0.000271856
0.00052076
-0.000269575
0.000559656
-0.000275992
0.0006306
-0.000268422
0.000761952
-0.000246988
0.00086077
-0.000224808
0.000864387
-0.000144072
0.000637501
0.000160143
0.000658385
0.00660866
-0.000381171
0.00303651
-0.000770036
0.000232628
-0.000934486
-0.000207947
-0.00086015
-0.000207019
-0.000600132
-0.000161643
-0.00045517
-0.000233179
-0.000472767
-0.000321224
-0.000448612
-0.000308022
-0.000399189
-0.000269718
-0.000371673
-0.000240108
-0.000347264
-0.00021031
-0.000328048
-0.000185375
-0.000312751
-0.000165874
-0.000299694
-0.000151239
-0.000288041
-0.000140301
-0.000277051
-0.000131735
-0.000266325
-0.000124469
-0.000255759
-0.000117914
-0.000245377
-0.000111795
-0.000235215
-0.000105989
-0.000225286
-0.00010044
-0.000215578
-9.51241e-05
-0.000206067
-9.00358e-05
-0.000196731
-8.51788e-05
-0.000187546
-8.05604e-05
-0.000178493
-7.61876e-05
-0.000169554
-7.20691e-05
-0.000160735
-6.82177e-05
-0.000152047
-6.46388e-05
-0.000143485
-6.13245e-05
-0.000135052
-5.82737e-05
-0.000126758
-5.54823e-05
-0.000118609
-5.29426e-05
-0.000110611
-5.0644e-05
-0.000102768
-4.85735e-05
-9.50825e-05
-4.67171e-05
-8.75531e-05
-4.50602e-05
-8.01768e-05
-4.35874e-05
-7.29472e-05
-4.22834e-05
-6.5856e-05
-4.11344e-05
-5.88935e-05
-4.01274e-05
-5.20487e-05
-3.92509e-05
-4.53096e-05
-3.84948e-05
-3.86633e-05
-3.78505e-05
-3.20969e-05
-3.73107e-05
-2.55971e-05
-3.68695e-05
-1.91507e-05
-3.65222e-05
-1.27446e-05
-3.62651e-05
-6.36542e-06
-3.60951e-05
-3.60106e-05
4.58167e-06
-4.03664e-05
9.17168e-06
-4.04559e-05
1.37785e-05
-4.06357e-05
1.84105e-05
-4.09072e-05
2.3076e-05
-4.12732e-05
2.77828e-05
-4.17369e-05
3.25386e-05
-4.23029e-05
3.73507e-05
-4.29764e-05
4.22257e-05
-4.37637e-05
4.71695e-05
-4.46725e-05
5.21866e-05
-4.57114e-05
5.72803e-05
-4.68901e-05
6.24521e-05
-4.82193e-05
6.77014e-05
-4.97107e-05
7.30252e-05
-5.13766e-05
7.84182e-05
-5.32295e-05
8.38731e-05
-5.52815e-05
8.9381e-05
-5.75443e-05
9.49316e-05
-6.00288e-05
0.000100514
-6.2744e-05
0.000106118
-6.56971e-05
0.000111737
-6.88933e-05
0.000117367
-7.23358e-05
0.000123
-7.60274e-05
0.000128637
-7.99642e-05
0.000134287
-8.41393e-05
0.000139962
-8.85442e-05
0.000145673
-9.31689e-05
0.000151426
-9.80025e-05
0.000157205
-0.000103036
0.000162962
-0.000108275
0.000168608
-0.00011376
0.000174042
-0.000119647
0.000179256
-0.000126385
0.000184613
-0.000135096
0.000190982
-0.000147808
0.000200265
-0.000167623
0.000214976
-0.000197325
0.000236706
-0.000235286
0.000264068
-0.000272457
0.000294729
-0.00029735
0.00033027
-0.000308955
0.000377679
-0.000318886
0.000435561
-0.000335804
0.000512175
-0.000346735
0.000601869
-0.000338131
0.000666406
-0.000290803
0.000653455
-0.000132861
0.000376229
0.000435784
0.000704471
0.00622863
-4.27337e-05
0.00377742
-0.000502869
0.000691768
-0.000655382
-5.67856e-05
-0.000633919
-0.000229514
-0.000509001
-0.00028715
-0.000402777
-0.000339897
-0.000355661
-0.000368882
-0.000315631
-0.000348541
-0.000277584
-0.000308166
-0.00025001
-0.00026797
-0.000228958
-0.000231515
-0.000213422
-0.000200946
-0.000202268
-0.000176983
-0.000194086
-0.000159336
-0.00018758
-0.000146711
-0.000181813
-0.00013741
-0.000176196
-0.000130001
-0.000170495
-0.000123536
-0.000164689
-0.000117522
-0.000158831
-0.000111768
-0.000152969
-0.000106219
-0.000147131
-0.000100874
-0.000141325
-9.57485e-05
-0.000135548
-9.08567e-05
-0.000129792
-8.62108e-05
-0.000124049
-8.18193e-05
-0.000118313
-7.76881e-05
-0.000112586
-7.38218e-05
-0.000106875
-7.02209e-05
-0.000101186
-6.68807e-05
-9.55246e-05
-6.37966e-05
-8.99019e-05
-6.09622e-05
-8.43282e-05
-5.83692e-05
-7.88137e-05
-5.60075e-05
-7.3367e-05
-5.38655e-05
-6.7995e-05
-5.19311e-05
-6.27028e-05
-5.01913e-05
-5.7493e-05
-4.86333e-05
-5.23657e-05
-4.72443e-05
-4.7319e-05
-4.60123e-05
-4.23496e-05
-4.49261e-05
-3.74522e-05
-4.39757e-05
-3.26208e-05
-4.31521e-05
-2.78483e-05
-4.24476e-05
-2.31271e-05
-4.18554e-05
-1.84491e-05
-4.13701e-05
-1.38059e-05
-4.09871e-05
-9.18919e-06
-4.0703e-05
-4.59013e-06
-4.0515e-05
-4.04213e-05
3.2289e-06
-4.34604e-05
6.46308e-06
-4.35554e-05
9.70788e-06
-4.3746e-05
1.29686e-05
-4.40339e-05
1.62503e-05
-4.44214e-05
1.95579e-05
-4.49117e-05
2.28958e-05
-4.55089e-05
2.62681e-05
-4.62178e-05
2.96785e-05
-4.70443e-05
3.31296e-05
-4.79953e-05
3.66234e-05
-4.90783e-05
4.01605e-05
-5.0302e-05
4.37404e-05
-5.16759e-05
4.73608e-05
-5.32099e-05
5.10179e-05
-5.49149e-05
5.47065e-05
-5.68016e-05
5.84199e-05
-5.88811e-05
6.21504e-05
-6.1164e-05
6.58897e-05
-6.36603e-05
6.96296e-05
-6.63794e-05
7.33627e-05
-6.93291e-05
7.70831e-05
-7.25164e-05
8.0787e-05
-7.59462e-05
8.44714e-05
-7.96222e-05
8.81371e-05
-8.35443e-05
9.17884e-05
-8.77091e-05
9.54306e-05
-9.21089e-05
9.90663e-05
-9.67309e-05
0.00010269
-0.000101556
0.00010628
-0.000106559
0.000109792
-0.000111722
0.000113172
-0.000117073
0.000116394
-0.0001228
0.00011959
-0.000129505
0.000123134
-0.000138556
0.0001278
-0.000152395
0.000134756
-0.000174535
0.000144735
-0.000207374
0.000157406
-0.000248277
0.000172076
-0.000287862
0.000191028
-0.000317525
0.000220691
-0.000340209
0.000266174
-0.000366031
0.000325672
-0.000396746
0.000397238
-0.000419452
0.000470624
-0.000412486
0.000518404
-0.000339618
0.000495013
-0.000110825
0.000276308
0.000652598
0.0005758
0.00589236
0.000186122
0.00416099
-0.000306725
0.00118334
-0.000486164
0.000121421
-0.000508624
-0.000208153
-0.000440942
-0.000355641
-0.000352234
-0.000429169
-0.000282502
-0.000439051
-0.000231892
-0.000399527
-0.000196829
-0.000343557
-0.000173497
-0.000291566
-0.00015702
-0.000248166
-0.00014493
-0.000213116
-0.000136104
-0.000185814
-0.000129753
-0.000165647
-0.000125026
-0.000151379
-0.00012117
-0.000141203
-0.000117672
-0.000133437
-0.000114219
-0.000126929
-0.000110704
-0.000120979
-0.000107118
-0.000115293
-0.000103484
-0.00010979
-9.98241e-05
-0.000104468
-9.6149e-05
-9.93534e-05
-9.2462e-05
-9.44692e-05
-8.87613e-05
-8.98328e-05
-8.50436e-05
-8.5454e-05
-8.13065e-05
-8.13379e-05
-7.75512e-05
-7.74857e-05
-7.37815e-05
-7.38952e-05
-7.00018e-05
-7.05612e-05
-6.62182e-05
-6.74773e-05
-6.24385e-05
-6.46356e-05
-5.8671e-05
-6.20272e-05
-5.4924e-05
-5.9642e-05
-5.12049e-05
-5.74692e-05
-4.75204e-05
-5.54976e-05
-4.38756e-05
-5.37157e-05
-4.02742e-05
-5.21122e-05
-3.67181e-05
-5.06759e-05
-3.32077e-05
-4.93964e-05
-2.97422e-05
-4.82637e-05
-2.63196e-05
-4.72691e-05
-2.29368e-05
-4.64045e-05
-1.959e-05
-4.56628e-05
-1.62749e-05
-4.5038e-05
-1.29868e-05
-4.45249e-05
-9.72068e-06
-4.41195e-05
-6.47115e-06
-4.38183e-05
-3.23278e-06
-4.36188e-05
-4.35194e-05
2.29614e-06
-4.56651e-05
4.59561e-06
-4.57635e-05
6.90175e-06
-4.59611e-05
9.21784e-06
-4.62592e-05
1.1547e-05
-4.66602e-05
1.38922e-05
-4.7167e-05
1.6256e-05
-4.77834e-05
1.86408e-05
-4.8514e-05
2.10484e-05
-4.93642e-05
2.34802e-05
-5.03403e-05
2.59368e-05
-5.14491e-05
2.84181e-05
-5.26986e-05
3.09228e-05
-5.40973e-05
3.3449e-05
-5.56542e-05
3.59936e-05
-5.73791e-05
3.85524e-05
-5.92819e-05
4.11208e-05
-6.13728e-05
4.36934e-05
-6.36618e-05
4.62646e-05
-6.61588e-05
4.8829e-05
-6.88733e-05
5.1382e-05
-7.1814e-05
5.392e-05
-7.49887e-05
5.6441e-05
-7.84041e-05
5.89444e-05
-8.2065e-05
6.14317e-05
-8.59738e-05
6.39068e-05
-9.01289e-05
6.63743e-05
-9.45239e-05
6.88383e-05
-9.91451e-05
7.13001e-05
-0.00010397
7.37565e-05
-0.00010897
7.62031e-05
-0.000114124
7.86484e-05
-0.000119474
8.11505e-05
-0.000125256
8.38608e-05
-0.000132166
8.69919e-05
-0.000141636
9.08295e-05
-0.000156188
9.52782e-05
-0.000178976
9.95346e-05
-0.000211731
0.000102678
-0.000251743
0.000106019
-0.000291849
0.000114863
-0.000327331
0.000135579
-0.000362038
0.000171682
-0.000403158
0.000225067
-0.000450929
0.000295243
-0.000490241
0.000366348
-0.000484168
0.000405589
-0.00037963
0.000370268
-7.65385e-05
0.0001835
0.000837636
0.000456349
0.00559296
0.000292656
0.00431953
-0.000151446
0.00162544
-0.000360087
0.000328699
-0.000421658
-0.000147749
-0.000386534
-0.000391656
-0.000305251
-0.000511043
-0.000226061
-0.000518616
-0.000170681
-0.000455159
-0.00013866
-0.000375782
-0.000121231
-0.000309171
-0.000110622
-0.000258905
-0.000102866
-0.000220942
-9.66253e-05
-0.00019207
-9.16015e-05
-0.000170653
-8.76264e-05
-0.000155319
-8.43859e-05
-0.000144403
-8.15944e-05
-0.000136188
-7.9031e-05
-0.000129452
-7.65495e-05
-0.00012342
-7.40884e-05
-0.000117713
-7.16273e-05
-0.000112207
-6.91615e-05
-0.000106889
-6.6689e-05
-0.000101778
-6.42075e-05
-9.69e-05
-6.17136e-05
-9.22731e-05
-5.92039e-05
-8.79073e-05
-5.66763e-05
-8.38064e-05
-5.41306e-05
-7.99696e-05
-5.15681e-05
-7.63931e-05
-4.89917e-05
-7.30706e-05
-4.64052e-05
-6.99944e-05
-4.38136e-05
-6.71555e-05
-4.12223e-05
-6.45446e-05
-3.8637e-05
-6.21513e-05
-3.6063e-05
-5.99653e-05
-3.35051e-05
-5.79759e-05
-3.09672e-05
-5.61723e-05
-2.84524e-05
-5.45442e-05
-2.59627e-05
-5.30815e-05
-2.3499e-05
-5.17747e-05
-2.10614e-05
-5.06148e-05
-1.86492e-05
-4.95939e-05
-1.62609e-05
-4.87044e-05
-1.38946e-05
-4.79401e-05
-1.15477e-05
-4.72952e-05
-9.21752e-06
-4.67649e-05
-6.90099e-06
-4.63454e-05
-4.59485e-06
-4.60335e-05
-2.29569e-06
-4.58269e-05
-4.57239e-05
1.68625e-06
-4.72941e-05
3.37456e-06
-4.73946e-05
5.067e-06
-4.75964e-05
6.76559e-06
-4.79009e-05
8.47219e-06
-4.83101e-05
1.01885e-05
-4.88269e-05
1.19162e-05
-4.9455e-05
1.36563e-05
-5.01986e-05
1.54099e-05
-5.10628e-05
1.71775e-05
-5.20534e-05
1.89591e-05
-5.31769e-05
2.07542e-05
-5.44407e-05
2.25618e-05
-5.58525e-05
2.438e-05
-5.74211e-05
2.62066e-05
-5.91553e-05
2.80386e-05
-6.10645e-05
2.98728e-05
-6.31586e-05
3.17054e-05
-6.54473e-05
3.3533e-05
-6.79405e-05
3.53521e-05
-7.06479e-05
3.71601e-05
-7.35788e-05
3.89551e-05
-7.67421e-05
4.07367e-05
-8.01455e-05
4.25058e-05
-8.37955e-05
4.42654e-05
-8.76964e-05
4.60208e-05
-9.18489e-05
4.77799e-05
-9.62491e-05
4.95534e-05
-0.000100886
5.13563e-05
-0.000105742
5.3211e-05
-0.000110795
5.51541e-05
-0.000116039
5.72477e-05
-0.00012154
5.95918e-05
-0.000127571
6.22823e-05
-0.000134826
6.53403e-05
-0.000144662
6.84965e-05
-0.000159318
7.08181e-05
-0.000181299
7.07956e-05
-0.000211786
6.7577e-05
-0.000248748
6.30476e-05
-0.000287735
6.20373e-05
-0.000326887
7.02171e-05
-0.000370807
9.4306e-05
-0.000427726
0.00014282
-0.000499777
0.000216023
-0.000563717
0.000289372
-0.000557901
0.000320406
-0.000411218
0.000270518
-2.7436e-05
8.39933e-05
0.0010228
0.00035142
0.00530679
0.000319901
0.0043458
-3.18366e-05
0.00197464
-0.000255869
0.000551143
-0.000347043
-5.78853e-05
-0.000334489
-0.00040521
-0.00025918
-0.000586976
-0.000177254
-0.000600857
-0.000122141
-0.000510419
-9.48209e-05
-0.000403196
-8.36567e-05
-0.000320416
-7.87993e-05
-0.000263829
-7.5336e-05
-0.000224444
-7.17739e-05
-0.000195642
-6.8133e-05
-0.000174283
-6.47503e-05
-0.00015868
-6.1808e-05
-0.00014732
-5.92679e-05
-0.000138701
-5.70525e-05
-0.000131641
-5.50459e-05
-0.0001254
-5.31625e-05
-0.000119569
-5.13487e-05
-0.000113993
-4.95725e-05
-0.000108635
-4.78146e-05
-0.000103504
-4.60627e-05
-9.86191e-05
-4.43082e-05
-9.39932e-05
-4.25452e-05
-8.96342e-05
-4.077e-05
-8.55438e-05
-3.89808e-05
-8.17194e-05
-3.71776e-05
-7.81554e-05
-3.53614e-05
-7.48444e-05
-3.35346e-05
-7.17774e-05
-3.17e-05
-6.89449e-05
-2.98611e-05
-6.63369e-05
-2.80216e-05
-6.3943e-05
-2.61852e-05
-6.17528e-05
-2.43551e-05
-5.97558e-05
-2.25344e-05
-5.7942e-05
-2.07252e-05
-5.63014e-05
-1.89293e-05
-5.48246e-05
-1.71477e-05
-5.35027e-05
-1.53808e-05
-5.23274e-05
-1.36287e-05
-5.12912e-05
-1.18906e-05
-5.03872e-05
-1.01656e-05
-4.96093e-05
-8.45229e-06
-4.89522e-05
-6.74917e-06
-4.84115e-05
-5.0544e-06
-4.79834e-05
-3.36602e-06
-4.76649e-05
-1.68193e-06
-4.74538e-05
-4.73487e-05
1.29172e-06
-4.85512e-05
2.58465e-06
-4.8653e-05
3.87994e-06
-4.88572e-05
5.17873e-06
-4.91653e-05
6.48204e-06
-4.95791e-05
7.79079e-06
-5.01016e-05
9.1057e-06
-5.0736e-05
1.04273e-05
-5.14865e-05
1.17559e-05
-5.2358e-05
1.30915e-05
-5.33559e-05
1.44336e-05
-5.44864e-05
1.57816e-05
-5.57564e-05
1.71344e-05
-5.71734e-05
1.84903e-05
-5.87456e-05
1.98474e-05
-6.04815e-05
2.12034e-05
-6.23903e-05
2.25559e-05
-6.44814e-05
2.39022e-05
-6.67645e-05
2.52398e-05
-6.92497e-05
2.65665e-05
-7.1947e-05
2.78807e-05
-7.48662e-05
2.91817e-05
-7.8017e-05
3.04701e-05
-8.14086e-05
3.17479e-05
-8.50489e-05
3.30196e-05
-8.89446e-05
3.42929e-05
-9.30995e-05
3.55794e-05
-9.75139e-05
3.68975e-05
-0.000102184
3.8275e-05
-0.0001071
3.9755e-05
-0.000112256
4.1402e-05
-0.000117667
4.33057e-05
-0.000123424
4.55659e-05
-0.000129811
4.82106e-05
-0.000137449
5.1091e-05
-0.00014752
5.35851e-05
-0.000161793
5.44056e-05
-0.000182115
5.18689e-05
-0.000209287
4.50444e-05
-0.000242038
3.51506e-05
-0.000278047
2.58011e-05
-0.000317797
2.31083e-05
-0.000368351
3.74885e-05
-0.000442253
8.20678e-05
-0.000544415
0.000157416
-0.000639125
0.00023134
-0.000632029
0.000251903
-0.000432223
0.000186608
3.72633e-05
-1.49478e-05
0.00122286
0.000263493
0.00501805
0.000311203
0.00429513
5.34338e-05
0.00222997
-0.000168352
0.00077115
-0.000277481
4.9779e-05
-0.000280362
-0.000403442
-0.000211078
-0.000656912
-0.000132033
-0.000680166
-8.21238e-05
-0.000560389
-6.14096e-05
-0.000423915
-5.62044e-05
-0.000325631
-5.60211e-05
-0.000264028
-5.59524e-05
-0.000224524
-5.46361e-05
-0.000196957
-5.23015e-05
-0.000176606
-4.95776e-05
-0.000161388
-4.69505e-05
-0.000149929
-4.46245e-05
-0.000141009
-4.26312e-05
-0.000133617
-4.0915e-05
-0.000127098
-3.93928e-05
-0.000121074
-3.79952e-05
-0.000115372
-3.66723e-05
-0.000109939
-3.53907e-05
-0.000104766
-3.41286e-05
-9.986e-05
-3.28717e-05
-9.52279e-05
-3.1611e-05
-9.08719e-05
-3.03408e-05
-8.67901e-05
-2.9058e-05
-8.29775e-05
-2.77611e-05
-7.94266e-05
-2.64505e-05
-7.61286e-05
-2.5127e-05
-7.30735e-05
-2.37927e-05
-7.02512e-05
-2.24499e-05
-6.7651e-05
-2.11012e-05
-6.52623e-05
-1.97492e-05
-6.30747e-05
-1.83965e-05
-6.1078e-05
-1.70454e-05
-5.9262e-05
-1.56978e-05
-5.76174e-05
-1.43553e-05
-5.61351e-05
-1.3019e-05
-5.48065e-05
-1.16897e-05
-5.36239e-05
-1.03676e-05
-5.25801e-05
-9.05281e-06
-5.16685e-05
-7.74495e-06
-5.08834e-05
-6.44349e-06
-5.02197e-05
-5.14765e-06
-4.96732e-05
-3.85649e-06
-4.92403e-05
-2.56895e-06
-4.89181e-05
-1.28386e-06
-4.87045e-05
-4.85981e-05
1.02939e-06
-4.95593e-05
2.05928e-06
-4.96616e-05
3.09018e-06
-4.98669e-05
4.1225e-06
-5.01764e-05
5.15661e-06
-5.05921e-05
6.19275e-06
-5.11167e-05
7.23104e-06
-5.17534e-05
8.27141e-06
-5.25061e-05
9.31359e-06
-5.33795e-05
1.03571e-05
-5.43788e-05
1.14011e-05
-5.55101e-05
1.24447e-05
-5.67798e-05
1.34864e-05
-5.81952e-05
1.45246e-05
-5.97641e-05
1.55574e-05
-6.14949e-05
1.65828e-05
-6.33965e-05
1.75984e-05
-6.54782e-05
1.86022e-05
-6.77498e-05
1.95919e-05
-7.02213e-05
2.0566e-05
-7.29032e-05
2.15232e-05
-7.5806e-05
2.24634e-05
-7.89402e-05
2.33877e-05
-8.23162e-05
2.42989e-05
-8.5944e-05
2.52028e-05
-8.98326e-05
2.61086e-05
-9.39899e-05
2.70312e-05
-9.84216e-05
2.7994e-05
-0.000103132
2.90326e-05
-0.000108124
3.02002e-05
-0.00011341
3.15712e-05
-0.000119025
3.32368e-05
-0.000125076
3.52698e-05
-0.00013183
3.76446e-05
-0.000139809
4.00888e-05
-0.000149948
4.18501e-05
-0.000163539
4.15964e-05
-0.000181853
3.77069e-05
-0.000205408
2.91294e-05
-0.000233504
1.6371e-05
-0.000265365
2.14676e-06
-0.000303657
-7.43592e-06
-0.000358812
-7.07193e-07
-0.000448946
3.78752e-05
-0.000582885
0.000110887
-0.000712053
0.000181289
-0.000702543
0.000189776
-0.00044108
0.000106859
0.000119764
-8.92209e-05
0.00141806
0.000198397
0.00472535
0.000288257
0.00420302
0.000107289
0.00240878
-9.70905e-05
0.000973688
-0.000212833
0.000163931
-0.000223684
-0.00039379
-0.000159653
-0.000721593
-8.84107e-05
-0.000751592
-4.83681e-05
-0.000600408
-3.58428e-05
-0.000436375
-3.59391e-05
-0.000325494
-3.90392e-05
-0.000260911
-4.11672e-05
-0.000222387
-4.14064e-05
-0.000196709
-4.01463e-05
-0.000177855
-3.81197e-05
-0.000163401
-3.5934e-05
-0.000152101
-3.39291e-05
-0.000143001
-3.22142e-05
-0.000135318
-3.07842e-05
-0.000128515
-2.95747e-05
-0.00012227
-2.85164e-05
-0.000116417
-2.75528e-05
-0.000110888
-2.6643e-05
-0.000105661
-2.57591e-05
-0.000100729
-2.48829e-05
-9.6089e-05
-2.40026e-05
-9.17367e-05
-2.31108e-05
-8.76659e-05
-2.22034e-05
-8.38685e-05
-2.12782e-05
-8.0335e-05
-2.03348e-05
-7.70548e-05
-1.93738e-05
-7.4017e-05
-1.83965e-05
-7.12105e-05
-1.74049e-05
-6.86243e-05
-1.6401e-05
-6.62475e-05
-1.53873e-05
-6.40695e-05
-1.43659e-05
-6.208e-05
-1.33391e-05
-6.02693e-05
-1.23088e-05
-5.8628e-05
-1.12765e-05
-5.71473e-05
-1.02438e-05
-5.58191e-05
-9.21156e-06
-5.46357e-05
-8.18066e-06
-5.35904e-05
-7.15157e-06
-5.26768e-05
-6.12459e-06
-5.18895e-05
-5.09976e-06
-5.12236e-05
-4.07699e-06
-5.06749e-05
-3.05602e-06
-5.02401e-05
-2.0365e-06
-4.99164e-05
-1.01799e-06
-4.97018e-05
-4.95948e-05
8.43621e-07
-5.03888e-05
1.68715e-06
-5.0491e-05
2.53046e-06
-5.06961e-05
3.3734e-06
-5.10053e-05
4.2157e-06
-5.14204e-05
5.05703e-06
-5.1944e-05
5.89692e-06
-5.25793e-05
6.73476e-06
-5.333e-05
7.56974e-06
-5.42006e-05
8.40086e-06
-5.51962e-05
9.2269e-06
-5.63224e-05
1.00464e-05
-5.75857e-05
1.08577e-05
-5.8993e-05
1.16588e-05
-6.05519e-05
1.24477e-05
-6.22706e-05
1.32221e-05
-6.41578e-05
1.39797e-05
-6.62228e-05
1.47182e-05
-6.84754e-05
1.54355e-05
-7.09259e-05
1.61299e-05
-7.35851e-05
1.68004e-05
-7.64641e-05
1.74468e-05
-7.95743e-05
1.80702e-05
-8.29276e-05
1.86738e-05
-8.65357e-05
1.92637e-05
-9.04108e-05
1.98498e-05
-9.45645e-05
2.04483e-05
-9.90088e-05
2.10839e-05
-0.000103756
2.17934e-05
-0.000108823
2.26296e-05
-0.000114235
2.3661e-05
-0.000120045
2.49617e-05
-0.000126366
2.65702e-05
-0.000133428
2.84186e-05
-0.000141646
3.01837e-05
-0.000151701
3.11303e-05
-0.000164472
3.00618e-05
-0.000180773
2.55679e-05
-0.000200909
1.66327e-05
-0.000224575
3.36083e-06
-0.000252106
-1.23336e-05
-0.000287962
-2.54688e-05
-0.000345628
-2.55086e-05
-0.000448767
3.86302e-06
-0.000612031
6.89616e-05
-0.000776953
0.000133299
-0.000766909
0.000129974
-0.000438075
3.06714e-05
0.00021879
-0.000134151
0.00158292
0.000151685
0.00443756
0.000265244
0.00408845
0.000138966
0.00253334
-4.18347e-05
0.00115268
-0.000154657
0.00027508
-0.000165872
-0.000383812
-0.000106012
-0.000782046
-4.65232e-05
-0.000811196
-1.96904e-05
-0.000627133
-1.60081e-05
-0.000439939
-2.04912e-05
-0.00032094
-2.5596e-05
-0.000255772
-2.88653e-05
-0.000219101
-3.00133e-05
-0.000195549
-2.95628e-05
-0.000178294
-2.82276e-05
-0.000164725
-2.66028e-05
-0.000153715
-2.50532e-05
-0.000144539
-2.37293e-05
-0.000136632
-2.26543e-05
-0.00012958
-2.17868e-05
-0.000123127
-2.10675e-05
-0.000117125
-2.04427e-05
-0.000111502
-1.98707e-05
-0.000106222
-1.9322e-05
-0.000101267
-1.87766e-05
-9.66231e-05
-1.82214e-05
-9.22804e-05
-1.76482e-05
-8.82274e-05
-1.70523e-05
-8.44526e-05
-1.64313e-05
-8.09439e-05
-1.57845e-05
-7.76893e-05
-1.51124e-05
-7.46766e-05
-1.44164e-05
-7.18939e-05
-1.36984e-05
-6.93297e-05
-1.29605e-05
-6.69726e-05
-1.22051e-05
-6.48119e-05
-1.14347e-05
-6.28374e-05
-1.06514e-05
-6.10393e-05
-9.85759e-06
-5.94084e-05
-9.05512e-06
-5.79363e-05
-8.24574e-06
-5.66149e-05
-7.43096e-06
-5.54369e-05
-6.61205e-06
-5.43956e-05
-5.79004e-06
-5.34851e-05
-4.96577e-06
-5.26999e-05
-4.13989e-06
-5.20356e-05
-3.3129e-06
-5.1488e-05
-2.48518e-06
-5.10539e-05
-1.657e-06
-5.07306e-05
-8.28558e-07
-5.05162e-05
-5.04094e-05
7.00211e-07
-5.10787e-05
1.39976e-06
-5.11803e-05
2.09794e-06
-5.1384e-05
2.79403e-06
-5.1691e-05
3.48719e-06
-5.21033e-05
4.17652e-06
-5.26231e-05
4.86099e-06
-5.32535e-05
5.53942e-06
-5.39982e-05
6.21047e-06
-5.48615e-05
6.8726e-06
-5.58481e-05
7.52408e-06
-5.69637e-05
8.16296e-06
-5.82145e-05
8.7871e-06
-5.9607e-05
9.39416e-06
-6.11489e-05
9.98162e-06
-6.2848e-05
1.05469e-05
-6.4713e-05
1.10872e-05
-6.67532e-05
1.16001e-05
-6.89784e-05
1.2083e-05
-7.1399e-05
1.25339e-05
-7.40263e-05
1.29514e-05
-7.68719e-05
1.3335e-05
-7.99482e-05
1.36854e-05
-8.32684e-05
1.40054e-05
-8.68462e-05
1.43005e-05
-9.06964e-05
1.458e-05
-9.48348e-05
1.48591e-05
-9.92786e-05
1.51603e-05
-0.000104048
1.55164e-05
-0.00010917
1.59714e-05
-0.000114681
1.65786e-05
-0.000120643
1.7387e-05
-0.000127165
1.84049e-05
-0.000134436
1.95369e-05
-0.000142767
2.04705e-05
-0.000152624
2.05731e-05
-0.000164564
1.88758e-05
-0.000179065
1.4266e-05
-0.00019629
5.90402e-06
-0.000216204
-6.30368e-06
-0.000239886
-2.1274e-05
-0.000272959
-3.58422e-05
-0.000330971
-4.20849e-05
-0.000442329
-2.44097e-05
-0.000629394
2.85788e-05
-0.000829633
8.5815e-05
-0.000824085
7.4484e-05
-0.000427033
-3.3989e-05
0.000327073
-0.000160423
0.00171033
0.000119668
0.00415882
0.000245803
0.00396305
0.00015585
0.00262215
-1.39471e-06
0.00130819
-0.000104008
0.000375991
-0.000108418
-0.000380599
-5.22357e-05
-0.000838684
-7.32678e-06
-0.000856081
4.66259e-06
-0.000638932
-9.41159e-08
-0.000435023
-7.90358e-06
-0.000313044
-1.40368e-05
-0.000249598
-1.77328e-05
-0.000215384
-1.93496e-05
-0.000193918
-1.95103e-05
-0.000178122
-1.88458e-05
-0.000165379
-1.78622e-05
-0.000154688
-1.68819e-05
-0.00014551
-1.60557e-05
-0.000137449
-1.54194e-05
-0.000130207
-1.495e-05
-0.000123587
-1.4602e-05
-0.000117464
-1.43302e-05
-0.000111765