/*--------------------------------*- C++ -*----------------------------------*\
  =========                 |
  \\      /  F ield         | OpenFOAM: The Open Source CFD Toolbox
   \\    /   O peration     | Website:  https://openfoam.org
    \\  /    A nd           | Version:  7
     \\/     M anipulation  |
\*---------------------------------------------------------------------------*/
FoamFile
{
    version     2.0;
    format      ascii;
    class       volScalarField;
    location    "6825600000";
    object      rho;
}
// * * * * * * * * * * * * * * * * * * * * * * * * * * * * * * * * * * * * * //

dimensions      [1 -3 0 0 0 0 0];

internalField   nonuniform List<scalar> 
5000
(
796.592
796.599
796.613
796.635
796.663
796.699
796.741
796.788
796.84
796.894
796.947
796.996
797.033
797.05
797.036
796.976
796.849
796.627
796.277
795.759
795.022
794.003
792.629
790.825
788.491
785.516
781.78
777.153
771.489
764.636
756.433
746.713
735.305
722.03
706.71
689.377
670.478
650.181
628.405
605.319
577.812
553.621
473.35
481.163
465.702
231.196
159.28
138.28
121.996
100.509
178.454
530.804
533.688
168.077
159.103
449.319
546.252
478.136
494.749
576.856
592.435
622.011
646.694
669.262
689.473
707.165
722.522
735.782
747.153
756.824
764.976
771.78
777.401
781.993
785.699
788.649
790.962
792.75
794.109
795.114
795.84
796.348
796.689
796.903
797.024
797.077
797.086
797.063
797.022
796.969
796.912
796.855
796.801
796.751
796.707
796.67
796.64
796.618
796.603
796.596
868.948
868.964
868.998
869.048
869.116
869.202
869.308
869.433
869.579
869.746
869.935
870.146
870.38
870.634
870.907
871.195
871.492
871.789
872.074
872.333
872.546
872.69
872.728
872.656
872.428
872.002
871.348
870.437
869.243
867.754
865.976
863.939
861.707
859.384
857.138
855.367
854.615
854.508
854.187
852.832
848.785
842.362
828.072
822.896
794.888
750.175
740.53
726.504
692.673
154.146
656.895
799.861
818.755
750.5
680.965
760.082
849.244
842.664
833.215
847.073
846.004
847.663
849.303
851.363
853.963
856.726
859.443
862.012
864.36
866.437
868.211
869.672
870.829
871.702
872.319
872.71
872.905
872.955
872.888
872.722
872.488
872.211
871.908
871.596
871.285
870.984
870.7
870.435
870.192
869.973
869.776
869.603
869.452
869.322
869.212
869.123
869.052
869
868.965
868.948
921.049
921.068
921.106
921.165
921.243
921.343
921.466
921.612
921.783
921.98
922.206
922.461
922.748
923.068
923.421
923.807
924.225
924.673
925.146
925.638
926.141
926.645
927.137
927.61
928.048
928.437
928.767
929.036
929.247
929.419
929.585
929.803
930.145
930.702
931.559
932.766
934.1
934.773
933.596
929.566
921.715
910.309
896.007
881.72
864.043
849.158
837.359
822.201
795.703
225.394
701.422
833.176
870.619
873.269
857.983
875.465
914.176
922.422
924.793
929.336
930.989
931.804
931.922
931.492
931.014
930.61
930.313
930.116
929.988
929.888
929.773
929.614
929.393
929.104
928.748
928.333
927.868
927.371
926.855
926.329
925.805
925.294
924.803
924.339
923.906
923.506
923.14
922.809
922.512
922.248
922.014
921.809
921.632
921.481
921.354
921.251
921.169
921.109
921.069
921.049
957.483
957.5
957.535
957.588
957.659
957.749
957.86
957.992
958.146
958.324
958.528
958.759
959.019
959.309
959.631
959.985
960.371
960.789
961.237
961.713
962.213
962.732
963.265
963.808
964.356
964.905
965.456
966.012
966.588
967.205
967.896
968.701
969.657
970.764
971.932
972.876
972.91
971.321
966.775
958.417
946.241
931.509
916.335
903.015
891.893
882.791
872.556
856.749
829.453
398.892
660.426
837.255
886.025
907.638
919.079
930.707
945.242
954.072
959.965
964.937
968.598
971.011
972.185
972.413
971.964
971.19
970.318
969.477
968.716
968.036
967.418
966.835
966.27
965.71
965.149
964.584
964.019
963.458
962.907
962.371
961.855
961.364
960.901
960.47
960.071
959.705
959.373
959.073
958.804
958.565
958.355
958.17
958.01
957.874
957.76
957.666
957.592
957.538
957.502
957.484
981.561
981.575
981.601
981.642
981.696
981.765
981.85
981.95
982.068
982.203
982.358
982.533
982.729
982.949
983.191
983.458
983.749
984.064
984.403
984.764
985.146
985.546
985.963
986.395
986.841
987.3
987.776
988.275
988.807
989.389
990.04
990.772
991.573
992.363
992.928
992.812
991.44
987.772
980.773
969.945
956.052
941.347
928.769
920.045
913.812
906.91
895.455
874.056
828.071
471.027
627.426
822.848
883.128
912.126
931.131
946.369
959.237
968.821
975.924
981.539
986.037
989.432
991.642
992.745
993.012
992.72
992.127
991.432
990.739
990.093
989.5
988.951
988.435
987.941
987.463
986.997
986.542
986.1
985.672
985.26
984.867
984.495
984.146
983.822
983.522
983.247
982.997
982.77
982.567
982.387
982.227
982.087
981.965
981.861
981.774
981.702
981.646
981.604
981.576
981.563
996.362
996.371
996.388
996.415
996.452
996.498
996.554
996.621
996.698
996.788
996.89
997.005
997.134
997.278
997.436
997.61
997.799
998.003
998.223
998.457
998.704
998.965
999.237
999.521
999.816
1000.12
1000.45
1000.79
1001.16
1001.56
1002
1002.47
1002.94
1003.29
1003.27
1002.54
1000.41
995.987
988.445
977.764
965.51
954.452
946.69
941.65
936.142
926.773
910.211
881.495
822.436
504.296
609.036
794.081
868.39
904.405
929.389
949.179
964.981
976.703
984.875
990.745
995.236
998.698
1001.16
1002.65
1003.34
1003.48
1003.27
1002.89
1002.46
1002.02
1001.62
1001.24
1000.88
1000.54
1000.22
999.911
999.611
999.322
999.043
998.776
998.522
998.282
998.056
997.846
997.652
997.473
997.31
997.162
997.029
996.91
996.804
996.712
996.631
996.562
996.504
996.457
996.419
996.391
996.373
996.363
1004.76
1004.76
1004.77
1004.79
1004.81
1004.84
1004.87
1004.91
1004.96
1005.01
1005.07
1005.14
1005.21
1005.29
1005.39
1005.49
1005.59
1005.71
1005.84
1005.97
1006.11
1006.26
1006.42
1006.58
1006.75
1006.93
1007.12
1007.31
1007.53
1007.76
1008.01
1008.26
1008.46
1008.53
1008.27
1007.37
1005.29
1001.32
994.97
986.688
978.148
971.253
966.317
961.187
952.641
937.934
915.329
880.859
813.184
525.095
599.717
763.354
848.184
890.253
920.692
946.114
966.412
981.112
990.68
996.795
1000.96
1003.99
1006.15
1007.55
1008.31
1008.61
1008.63
1008.48
1008.26
1008.02
1007.79
1007.57
1007.36
1007.17
1006.98
1006.8
1006.63
1006.47
1006.31
1006.15
1006.01
1005.87
1005.74
1005.62
1005.51
1005.41
1005.31
1005.23
1005.15
1005.08
1005.02
1004.97
1004.92
1004.88
1004.84
1004.82
1004.79
1004.78
1004.77
1004.76
1009.15
1009.15
1009.16
1009.17
1009.18
1009.19
1009.21
1009.23
1009.26
1009.28
1009.31
1009.35
1009.39
1009.43
1009.48
1009.53
1009.59
1009.65
1009.72
1009.78
1009.86
1009.93
1010.01
1010.1
1010.19
1010.28
1010.38
1010.48
1010.59
1010.71
1010.83
1010.94
1011.01
1010.96
1010.69
1009.94
1008.34
1005.45
1001.06
995.681
990.43
985.989
981.443
974.227
961.442
941.189
913.517
873.893
800.588
538.583
593.647
736.149
826.168
873.315
909.018
940.229
965.669
983.579
994.665
1001.06
1004.86
1007.33
1009
1010.07
1010.69
1010.99
1011.08
1011.05
1010.95
1010.84
1010.72
1010.61
1010.5
1010.4
1010.31
1010.21
1010.13
1010.04
1009.96
1009.88
1009.8
1009.73
1009.67
1009.61
1009.55
1009.49
1009.44
1009.4
1009.36
1009.32
1009.29
1009.26
1009.24
1009.21
1009.2
1009.18
1009.17
1009.16
1009.16
1009.15
1011.28
1011.28
1011.28
1011.29
1011.29
1011.3
1011.31
1011.32
1011.33
1011.34
1011.36
1011.37
1011.39
1011.41
1011.44
1011.46
1011.49
1011.52
1011.55
1011.58
1011.62
1011.65
1011.69
1011.73
1011.77
1011.82
1011.86
1011.91
1011.97
1012.02
1012.07
1012.12
1012.13
1012.07
1011.86
1011.35
1010.31
1008.52
1005.89
1002.76
999.57
996.17
991.095
981.627
964.866
939.687
906.382
862.264
783.105
548.488
590.946
714.437
804.47
855.812
896.569
933.557
964.026
985.099
997.531
1004.11
1007.55
1009.48
1010.67
1011.42
1011.85
1012.07
1012.16
1012.17
1012.13
1012.09
1012.03
1011.98
1011.93
1011.88
1011.83
1011.79
1011.75
1011.71
1011.67
1011.63
1011.59
1011.56
1011.53
1011.5
1011.47
1011.44
1011.42
1011.4
1011.38
1011.36
1011.35
1011.33
1011.32
1011.31
1011.3
1011.29
1011.29
1011.28
1011.28
1011.28
1012.23
1012.24
1012.24
1012.24
1012.24
1012.24
1012.25
1012.25
1012.26
1012.26
1012.27
1012.28
1012.29
1012.3
1012.31
1012.32
1012.33
1012.34
1012.36
1012.37
1012.39
1012.41
1012.42
1012.44
1012.46
1012.48
1012.5
1012.52
1012.55
1012.57
1012.59
1012.61
1012.6
1012.56
1012.42
1012.11
1011.52
1010.53
1009.11
1007.36
1005.33
1002.42
996.891
985.723
965.568
935.279
896.689
848.131
763.023
558.654
590.52
697.668
784.729
839.164
884.768
927.494
962.69
986.389
999.757
1006.31
1009.35
1010.84
1011.65
1012.13
1012.4
1012.55
1012.61
1012.63
1012.62
1012.6
1012.58
1012.56
1012.53
1012.51
1012.49
1012.47
1012.45
1012.43
1012.41
1012.4
1012.38
1012.37
1012.35
1012.34
1012.32
1012.31
1012.3
1012.29
1012.28
1012.28
1012.27
1012.26
1012.26
1012.25
1012.25
1012.24
1012.24
1012.24
1012.24
1012.24
1012.63
1012.63
1012.63
1012.63
1012.63
1012.64
1012.64
1012.64
1012.64
1012.64
1012.65
1012.65
1012.65
1012.66
1012.66
1012.67
1012.67
1012.68
1012.69
1012.69
1012.7
1012.71
1012.71
1012.72
1012.73
1012.74
1012.75
1012.76
1012.77
1012.78
1012.79
1012.79
1012.78
1012.75
1012.67
1012.5
1012.19
1011.68
1010.95
1009.99
1008.62
1006.09
1000.47
988.252
965.43
930.427
886.375
833.348
745.036
568.921
591.338
684.757
767.587
824.177
874.532
922.912
962.098
987.843
1001.64
1007.9
1010.52
1011.65
1012.19
1012.49
1012.65
1012.74
1012.79
1012.8
1012.8
1012.79
1012.78
1012.77
1012.76
1012.75
1012.74
1012.73
1012.73
1012.72
1012.71
1012.7
1012.7
1012.69
1012.68
1012.68
1012.67
1012.67
1012.66
1012.66
1012.65
1012.65
1012.65
1012.64
1012.64
1012.64
1012.64
1012.64
1012.64
1012.63
1012.63
1012.63
1012.77
1012.77
1012.77
1012.77
1012.77
1012.77
1012.77
1012.77
1012.77
1012.77
1012.77
1012.78
1012.78
1012.78
1012.78
1012.78
1012.79
1012.79
1012.79
1012.79
1012.8
1012.8
1012.8
1012.81
1012.81
1012.81
1012.82
1012.82
1012.82
1012.83
1012.83
1012.83
1012.83
1012.81
1012.76
1012.67
1012.51
1012.26
1011.89
1011.36
1010.41
1008.26
1002.85
990.163
965.308
926.239
876.645
819.257
730.977
579.784
593.893
675.014
753.137
811.323
866.44
920.304
962.767
989.663
1003.32
1009.08
1011.27
1012.11
1012.47
1012.65
1012.75
1012.8
1012.83
1012.84
1012.84
1012.84
1012.83
1012.83
1012.83
1012.82
1012.82
1012.81
1012.81
1012.81
1012.8
1012.8
1012.8
1012.79
1012.79
1012.79
1012.79
1012.78
1012.78
1012.78
1012.78
1012.78
1012.78
1012.78
1012.77
1012.77
1012.77
1012.77
1012.77
1012.77
1012.77
1012.77
1012.79
1012.79
1012.79
1012.79
1012.79
1012.79
1012.79
1012.79
1012.79
1012.79
1012.79
1012.79
1012.79
1012.79
1012.79
1012.79
1012.79
1012.79
1012.79
1012.79
1012.8
1012.8
1012.8
1012.8
1012.8
1012.8
1012.8
1012.81
1012.81
1012.81
1012.81
1012.81
1012.81
1012.8
1012.77
1012.72
1012.64
1012.52
1012.33
1012.02
1011.35
1009.58
1004.59
991.966
965.897
923.469
868.409
806.837
721.007
592.061
598.417
667.981
741.277
800.863
860.855
919.444
964.632
991.828
1004.85
1009.96
1011.73
1012.35
1012.59
1012.7
1012.76
1012.79
1012.81
1012.81
1012.82
1012.82
1012.81
1012.81
1012.81
1012.81
1012.81
1012.8
1012.8
1012.8
1012.8
1012.8
1012.8
1012.8
1012.8
1012.79
1012.79
1012.79
1012.79
1012.79
1012.79
1012.79
1012.79
1012.79
1012.79
1012.79
1012.79
1012.79
1012.79
1012.79
1012.79
1012.79
1012.75
1012.75
1012.75
1012.75
1012.75
1012.75
1012.75
1012.75
1012.75
1012.75
1012.75
1012.75
1012.75
1012.75
1012.75
1012.75
1012.75
1012.75
1012.75
1012.75
1012.75
1012.75
1012.75
1012.75
1012.75
1012.75
1012.75
1012.75
1012.75
1012.76
1012.76
1012.76
1012.75
1012.75
1012.74
1012.71
1012.67
1012.61
1012.51
1012.32
1011.84
1010.4
1005.98
993.892
967.42
922.351
862.357
796.609
714.5
605.275
604.302
663.345
731.82
792.877
858.193
921.046
967.565
994.253
1006.25
1010.61
1012.01
1012.47
1012.63
1012.7
1012.73
1012.75
1012.76
1012.76
1012.76
1012.76
1012.76
1012.76
1012.76
1012.76
1012.76
1012.76
1012.75
1012.75
1012.75
1012.75
1012.75
1012.75
1012.75
1012.75
1012.75
1012.75
1012.75
1012.75
1012.75
1012.75
1012.75
1012.75
1012.75
1012.75
1012.75
1012.75
1012.75
1012.75
1012.75
1012.75
1012.68
1012.68
1012.68
1012.68
1012.68
1012.68
1012.68
1012.68
1012.68
1012.68
1012.68
1012.68
1012.68
1012.68
1012.68
1012.68
1012.68
1012.68
1012.68
1012.68
1012.68
1012.68
1012.68
1012.68
1012.68
1012.68
1012.68
1012.68
1012.69
1012.69
1012.69
1012.69
1012.69
1012.68
1012.68
1012.67
1012.65
1012.62
1012.56
1012.44
1012.09
1010.95
1007.15
995.989
969.898
923.088
858.825
788.667
710.112
617.412
610.022
660.409
724.424
787.314
857.825
924.172
971.206
996.768
1007.49
1011.09
1012.18
1012.5
1012.62
1012.66
1012.68
1012.68
1012.69
1012.69
1012.69
1012.69
1012.69
1012.69
1012.69
1012.69
1012.69
1012.69
1012.69
1012.69
1012.69
1012.69
1012.69
1012.69
1012.69
1012.69
1012.69
1012.69
1012.69
1012.69
1012.69
1012.69
1012.69
1012.69
1012.69
1012.69
1012.69
1012.69
1012.69
1012.69
1012.69
1012.69
1012.61
1012.61
1012.61
1012.61
1012.61
1012.61
1012.61
1012.61
1012.61
1012.61
1012.6
1012.6
1012.6
1012.6
1012.6
1012.6
1012.6
1012.6
1012.6
1012.6
1012.6
1012.6
1012.6
1012.61
1012.61
1012.61
1012.61
1012.61
1012.61
1012.61
1012.61
1012.61
1012.61
1012.61
1012.61
1012.6
1012.59
1012.58
1012.55
1012.47
1012.21
1011.33
1008.17
998.164
973.055
925.437
857.43
782.82
706.546
626.431
614.403
658.115
718.729
784.219
859.714
928.399
975.185
999.195
1008.53
1011.44
1012.26
1012.5
1012.57
1012.6
1012.61
1012.61
1012.61
1012.61
1012.61
1012.61
1012.61
1012.61
1012.61
1012.61
1012.61
1012.61
1012.61
1012.61
1012.61
1012.61
1012.61
1012.61
1012.61
1012.61
1012.61
1012.61
1012.61
1012.61
1012.61
1012.61
1012.61
1012.61
1012.61
1012.61
1012.61
1012.61
1012.61
1012.61
1012.61
1012.61
1012.52
1012.52
1012.52
1012.52
1012.52
1012.52
1012.52
1012.52
1012.52
1012.52
1012.52
1012.52
1012.52
1012.52
1012.52
1012.52
1012.52
1012.52
1012.52
1012.52
1012.52
1012.52
1012.52
1012.52
1012.52
1012.52
1012.52
1012.52
1012.53
1012.53
1012.53
1012.53
1012.53
1012.53
1012.53
1012.53
1012.53
1012.52
1012.5
1012.45
1012.26
1011.59
1009.04
1000.29
976.595
928.925
858.099
779.07
703.342
631.717
617.021
655.853
714.402
783.327
862.885
933.157
979.166
1001.4
1009.39
1011.69
1012.3
1012.47
1012.52
1012.53
1012.53
1012.54
1012.53
1012.53
1012.53
1012.53
1012.53
1012.53
1012.53
1012.53
1012.53
1012.53
1012.53
1012.53
1012.53
1012.52
1012.52
1012.52
1012.52
1012.52
1012.52
1012.52
1012.52
1012.52
1012.52
1012.52
1012.52
1012.52
1012.52
1012.52
1012.52
1012.52
1012.52
1012.52
1012.52
1012.52
1012.44
1012.44
1012.44
1012.44
1012.44
1012.44
1012.44
1012.44
1012.44
1012.44
1012.44
1012.44
1012.44
1012.44
1012.44
1012.44
1012.44
1012.44
1012.44
1012.44
1012.44
1012.44
1012.44
1012.44
1012.44
1012.44
1012.44
1012.44
1012.44
1012.44
1012.44
1012.45
1012.45
1012.45
1012.45
1012.45
1012.45
1012.45
1012.44
1012.41
1012.27
1011.77
1009.75
1002.27
980.259
933.136
860.323
777.314
700.559
633.99
617.874
653.382
711.047
783.59
866.697
938.038
982.936
1003.3
1010.05
1011.84
1012.3
1012.42
1012.45
1012.46
1012.46
1012.46
1012.45
1012.45
1012.45
1012.45
1012.45
1012.45
1012.44
1012.44
1012.44
1012.44
1012.44
1012.44
1012.44
1012.44
1012.44
1012.44
1012.44
1012.44
1012.44
1012.44
1012.44
1012.44
1012.44
1012.44
1012.44
1012.44
1012.44
1012.44
1012.44
1012.44
1012.44
1012.44
1012.44
1012.44
1012.35
1012.35
1012.35
1012.35
1012.35
1012.35
1012.35
1012.35
1012.35
1012.35
1012.35
1012.35
1012.35
1012.35
1012.35
1012.35
1012.35
1012.35
1012.35
1012.35
1012.35
1012.35
1012.35
1012.35
1012.35
1012.35
1012.35
1012.36
1012.36
1012.36
1012.36
1012.36
1012.36
1012.37
1012.37
1012.37
1012.37
1012.38
1012.37
1012.35
1012.26
1011.88
1010.31
1004.03
983.892
937.793
863.561
777.119
698.252
634.474
617.296
650.748
708.498
784.784
870.761
942.853
986.426
1004.92
1010.55
1011.94
1012.27
1012.35
1012.38
1012.38
1012.38
1012.37
1012.37
1012.37
1012.37
1012.36
1012.36
1012.36
1012.36
1012.36
1012.36
1012.36
1012.36
1012.35
1012.35
1012.35
1012.35
1012.35
1012.35
1012.35
1012.35
1012.35
1012.35
1012.35
1012.35
1012.35
1012.35
1012.35
1012.35
1012.35
1012.35
1012.35
1012.35
1012.35
1012.35
1012.35
1012.26
1012.26
1012.26
1012.26
1012.26
1012.26
1012.26
1012.26
1012.26
1012.26
1012.26
1012.26
1012.26
1012.26
1012.26
1012.26
1012.26
1012.26
1012.26
1012.26
1012.26
1012.26
1012.26
1012.27
1012.27
1012.27
1012.27
1012.27
1012.27
1012.27
1012.28
1012.28
1012.28
1012.28
1012.29
1012.29
1012.29
1012.3
1012.3
1012.28
1012.22
1011.95
1010.75
1005.58
987.453
942.816
867.592
777.912
696.712
634.276
616.426
648.147
706.665
786.398
874.905
947.633
989.684
1006.29
1010.92
1011.99
1012.23
1012.29
1012.3
1012.3
1012.3
1012.29
1012.29
1012.29
1012.28
1012.28
1012.28
1012.28
1012.27
1012.27
1012.27
1012.27
1012.27
1012.27
1012.27
1012.27
1012.27
1012.26
1012.26
1012.26
1012.26
1012.26
1012.26
1012.26
1012.26
1012.26
1012.26
1012.26
1012.26
1012.26
1012.26
1012.26
1012.26
1012.26
1012.26
1012.26
1012.17
1012.17
1012.17
1012.17
1012.17
1012.17
1012.17
1012.17
1012.17
1012.17
1012.17
1012.17
1012.17
1012.17
1012.17
1012.17
1012.17
1012.17
1012.17
1012.17
1012.18
1012.18
1012.18
1012.18
1012.18
1012.18
1012.18
1012.18
1012.19
1012.19
1012.19
1012.19
1012.2
1012.2
1012.2
1012.21
1012.21
1012.22
1012.22
1012.21
1012.17
1011.98
1011.08
1006.94
990.983
948.302
872.445
779.775
696.215
633.987
615.362
645.73
705.302
788.006
879.292
952.602
992.826
1007.47
1011.2
1012
1012.18
1012.22
1012.22
1012.22
1012.21
1012.21
1012.21
1012.2
1012.2
1012.2
1012.19
1012.19
1012.19
1012.19
1012.19
1012.18
1012.18
1012.18
1012.18
1012.18
1012.18
1012.18
1012.18
1012.18
1012.18
1012.18
1012.17
1012.17
1012.17
1012.17
1012.17
1012.17
1012.17
1012.17
1012.17
1012.17
1012.17
1012.17
1012.17
1012.17
1012.08
1012.08
1012.08
1012.08
1012.08
1012.08
1012.08
1012.08
1012.08
1012.08
1012.08
1012.08
1012.08
1012.08
1012.08
1012.08
1012.09
1012.09
1012.09
1012.09
1012.09
1012.09
1012.09
1012.09
1012.09
1012.09
1012.1
1012.1
1012.1
1012.1
1012.11
1012.11
1012.11
1012.12
1012.12
1012.12
1012.13
1012.13
1012.14
1012.14
1012.11
1011.98
1011.33
1008.14
994.547
954.483
878.403
782.413
696.069
633.824
614.31
643.587
704.21
789.821
884.434
958.099
995.971
1008.51
1011.41
1011.99
1012.12
1012.14
1012.14
1012.14
1012.13
1012.13
1012.12
1012.12
1012.11
1012.11
1012.11
1012.11
1012.1
1012.1
1012.1
1012.1
1012.1
1012.09
1012.09
1012.09
1012.09
1012.09
1012.09
1012.09
1012.09
1012.09
1012.09
1012.09
1012.09
1012.09
1012.09
1012.09
1012.09
1012.08
1012.08
1012.08
1012.08
1012.08
1012.08
1012.08
1011.99
1011.99
1011.99
1011.99
1011.99
1011.99
1011.99
1011.99
1011.99
1011.99
1011.99
1011.99
1012
1012
1012
1012
1012
1012
1012
1012
1012
1012
1012
1012
1012.01
1012.01
1012.01
1012.01
1012.01
1012.02
1012.02
1012.02
1012.03
1012.03
1012.04
1012.04
1012.05
1012.05
1012.06
1012.06
1012.05
1011.96
1011.52
1009.19
998.167
961.643
886.083
786.192
696.47
633.92
613.55
641.74
703.526
792.525
891.097
964.488
999.181
1009.43
1011.56
1011.97
1012.05
1012.06
1012.06
1012.05
1012.05
1012.04
1012.04
1012.03
1012.03
1012.03
1012.02
1012.02
1012.02
1012.01
1012.01
1012.01
1012.01
1012.01
1012.01
1012
1012
1012
1012
1012
1012
1012
1012
1012
1012
1012
1012
1012
1012
1012
1012
1012
1012
1012
1012
1012
1011.9
1011.9
1011.9
1011.9
1011.9
1011.9
1011.91
1011.91
1011.91
1011.91
1011.91
1011.91
1011.91
1011.91
1011.91
1011.91
1011.91
1011.91
1011.91
1011.91
1011.91
1011.91
1011.92
1011.92
1011.92
1011.92
1011.92
1011.93
1011.93
1011.93
1011.93
1011.94
1011.94
1011.95
1011.95
1011.96
1011.96
1011.97
1011.98
1011.98
1011.98
1011.93
1011.64
1010.07
1001.76
969.986
896.358
792.102
697.711
634.344
612.97
640.298
703.442
797.179
900.242
972.044
1002.41
1010.21
1011.67
1011.93
1011.98
1011.98
1011.98
1011.97
1011.96
1011.96
1011.95
1011.95
1011.94
1011.94
1011.94
1011.93
1011.93
1011.93
1011.92
1011.92
1011.92
1011.92
1011.92
1011.92
1011.92
1011.91
1011.91
1011.91
1011.91
1011.91
1011.91
1011.91
1011.91
1011.91
1011.91
1011.91
1011.91
1011.91
1011.91
1011.91
1011.91
1011.91
1011.91
1011.91
1011.82
1011.82
1011.82
1011.82
1011.82
1011.82
1011.82
1011.82
1011.82
1011.82
1011.82
1011.82
1011.82
1011.82
1011.82
1011.82
1011.82
1011.82
1011.82
1011.82
1011.82
1011.83
1011.83
1011.83
1011.83
1011.83
1011.84
1011.84
1011.84
1011.84
1011.85
1011.85
1011.86
1011.86
1011.87
1011.87
1011.88
1011.88
1011.89
1011.9
1011.9
1011.88
1011.71
1010.75
1005.1
979.468
910.238
801.767
700.253
635.145
612.75
639.693
704.551
805.48
912.967
980.791
1005.46
1010.82
1011.72
1011.88
1011.9
1011.9
1011.89
1011.89
1011.88
1011.87
1011.87
1011.86
1011.86
1011.85
1011.85
1011.85
1011.84
1011.84
1011.84
1011.84
1011.83
1011.83
1011.83
1011.83
1011.83
1011.83
1011.82
1011.82
1011.82
1011.82
1011.82
1011.82
1011.82
1011.82
1011.82
1011.82
1011.82
1011.82
1011.82
1011.82
1011.82
1011.82
1011.82
1011.82
1011.73
1011.73
1011.73
1011.73
1011.73
1011.73
1011.73
1011.73
1011.73
1011.73
1011.73
1011.73
1011.73
1011.73
1011.73
1011.73
1011.73
1011.73
1011.73
1011.74
1011.74
1011.74
1011.74
1011.74
1011.74
1011.75
1011.75
1011.75
1011.75
1011.76
1011.76
1011.76
1011.77
1011.77
1011.78
1011.79
1011.79
1011.8
1011.81
1011.82
1011.82
1011.82
1011.73
1011.21
1007.88
989.55
928.645
817.826
705.296
636.498
612.942
639.593
708.151
820.159
930.303
990.268
1008.04
1011.24
1011.74
1011.82
1011.82
1011.82
1011.81
1011.8
1011.79
1011.79
1011.78
1011.78
1011.77
1011.77
1011.76
1011.76
1011.76
1011.75
1011.75
1011.75
1011.75
1011.74
1011.74
1011.74
1011.74
1011.74
1011.74
1011.74
1011.73
1011.73
1011.73
1011.73
1011.73
1011.73
1011.73
1011.73
1011.73
1011.73
1011.73
1011.73
1011.73
1011.73
1011.73
1011.73
1011.64
1011.64
1011.64
1011.64
1011.64
1011.64
1011.64
1011.64
1011.64
1011.64
1011.64
1011.64
1011.64
1011.64
1011.64
1011.64
1011.64
1011.64
1011.65
1011.65
1011.65
1011.65
1011.65
1011.65
1011.66
1011.66
1011.66
1011.66
1011.67
1011.67
1011.67
1011.68
1011.68
1011.69
1011.69
1011.7
1011.71
1011.71
1011.72
1011.73
1011.74
1011.74
1011.71
1011.47
1009.84
998.988
951.695
844.243
716.458
639.11
613.624
640.91
717.845
845.34
952.496
999.289
1009.9
1011.48
1011.71
1011.74
1011.74
1011.73
1011.72
1011.71
1011.71
1011.7
1011.69
1011.69
1011.68
1011.68
1011.67
1011.67
1011.67
1011.66
1011.66
1011.66
1011.66
1011.66
1011.65
1011.65
1011.65
1011.65
1011.65
1011.65
1011.65
1011.64
1011.64
1011.64
1011.64
1011.64
1011.64
1011.64
1011.64
1011.64
1011.64
1011.64
1011.64
1011.64
1011.64
1011.64
1011.55
1011.55
1011.55
1011.55
1011.55
1011.55
1011.55
1011.55
1011.55
1011.55
1011.55
1011.55
1011.55
1011.55
1011.55
1011.55
1011.56
1011.56
1011.56
1011.56
1011.56
1011.56
1011.56
1011.57
1011.57
1011.57
1011.57
1011.58
1011.58
1011.58
1011.59
1011.59
1011.59
1011.6
1011.61
1011.61
1011.62
1011.63
1011.64
1011.65
1011.66
1011.66
1011.66
1011.57
1010.92
1006.08
977.002
885.228
743.595
645.931
615.596
646.601
743.697
885.452
977.262
1006.16
1010.94
1011.57
1011.66
1011.66
1011.66
1011.65
1011.64
1011.63
1011.62
1011.61
1011.61
1011.6
1011.6
1011.59
1011.59
1011.58
1011.58
1011.58
1011.57
1011.57
1011.57
1011.57
1011.57
1011.56
1011.56
1011.56
1011.56
1011.56
1011.56
1011.56
1011.56
1011.55
1011.55
1011.55
1011.55
1011.55
1011.55
1011.55
1011.55
1011.55
1011.55
1011.55
1011.55
1011.55
1011.46
1011.46
1011.46
1011.46
1011.46
1011.46
1011.46
1011.46
1011.46
1011.46
1011.46
1011.46
1011.46
1011.46
1011.46
1011.47
1011.47
1011.47
1011.47
1011.47
1011.47
1011.47
1011.47
1011.48
1011.48
1011.48
1011.48
1011.49
1011.49
1011.49
1011.5
1011.5
1011.51
1011.51
1011.52
1011.52
1011.53
1011.54
1011.55
1011.56
1011.57
1011.58
1011.59
1011.56
1011.36
1009.85
998.029
939.451
804.546
670.816
625.039
670.51
803.995
939.33
998.071
1009.86
1011.37
1011.56
1011.59
1011.58
1011.57
1011.56
1011.55
1011.54
1011.53
1011.53
1011.52
1011.51
1011.51
1011.5
1011.5
1011.5
1011.49
1011.49
1011.49
1011.48
1011.48
1011.48
1011.48
1011.47
1011.47
1011.47
1011.47
1011.47
1011.47
1011.47
1011.47
1011.47
1011.46
1011.46
1011.46
1011.46
1011.46
1011.46
1011.46
1011.46
1011.46
1011.46
1011.46
1011.46
1011.37
1011.37
1011.37
1011.37
1011.37
1011.37
1011.37
1011.37
1011.37
1011.37
1011.37
1011.37
1011.37
1011.37
1011.38
1011.38
1011.38
1011.38
1011.38
1011.38
1011.38
1011.38
1011.39
1011.39
1011.39
1011.39
1011.4
1011.4
1011.4
1011.41
1011.41
1011.41
1011.42
1011.42
1011.43
1011.44
1011.44
1011.45
1011.46
1011.47
1011.48
1011.49
1011.5
1011.51
1011.46
1011.11
1008.41
988.641
905.853
759.301
679.222
758.616
905.377
988.568
1008.42
1011.11
1011.46
1011.51
1011.5
1011.49
1011.48
1011.47
1011.46
1011.45
1011.44
1011.44
1011.43
1011.42
1011.42
1011.41
1011.41
1011.41
1011.4
1011.4
1011.4
1011.39
1011.39
1011.39
1011.39
1011.39
1011.38
1011.38
1011.38
1011.38
1011.38
1011.38
1011.38
1011.38
1011.38
1011.38
1011.37
1011.37
1011.37
1011.37
1011.37
1011.37
1011.37
1011.37
1011.37
1011.37
1011.28
1011.28
1011.28
1011.28
1011.28
1011.28
1011.28
1011.28
1011.28
1011.28
1011.28
1011.28
1011.28
1011.29
1011.29
1011.29
1011.29
1011.29
1011.29
1011.29
1011.29
1011.3
1011.3
1011.3
1011.3
1011.3
1011.31
1011.31
1011.31
1011.32
1011.32
1011.32
1011.33
1011.33
1011.34
1011.35
1011.35
1011.36
1011.37
1011.38
1011.39
1011.4
1011.41
1011.42
1011.42
1011.36
1010.91
1007.78
988.116
918.673
842.638
918.412
988.038
1007.77
1010.91
1011.36
1011.42
1011.42
1011.41
1011.4
1011.39
1011.38
1011.37
1011.36
1011.35
1011.35
1011.34
1011.34
1011.33
1011.33
1011.32
1011.32
1011.31
1011.31
1011.31
1011.31
1011.3
1011.3
1011.3
1011.3
1011.3
1011.29
1011.29
1011.29
1011.29
1011.29
1011.29
1011.29
1011.29
1011.29
1011.29
1011.28
1011.28
1011.28
1011.28
1011.28
1011.28
1011.28
1011.28
1011.28
1011.19
1011.19
1011.19
1011.19
1011.19
1011.19
1011.19
1011.19
1011.19
1011.19
1011.19
1011.2
1011.2
1011.2
1011.2
1011.2
1011.2
1011.2
1011.2
1011.2
1011.2
1011.21
1011.21
1011.21
1011.21
1011.21
1011.22
1011.22
1011.22
1011.23
1011.23
1011.24
1011.24
1011.24
1011.25
1011.26
1011.26
1011.27
1011.28
1011.29
1011.3
1011.31
1011.32
1011.33
1011.34
1011.34
1011.28
1010.91
1008.85
999.758
983.486
999.735
1008.84
1010.91
1011.28
1011.34
1011.34
1011.33
1011.32
1011.31
1011.3
1011.29
1011.28
1011.27
1011.26
1011.26
1011.25
1011.25
1011.24
1011.24
1011.23
1011.23
1011.22
1011.22
1011.22
1011.22
1011.21
1011.21
1011.21
1011.21
1011.21
1011.2
1011.2
1011.2
1011.2
1011.2
1011.2
1011.2
1011.2
1011.2
1011.2
1011.2
1011.2
1011.19
1011.19
1011.19
1011.19
1011.19
1011.19
1011.19
1011.1
1011.1
1011.1
1011.1
1011.1
1011.1
1011.1
1011.1
1011.1
1011.1
1011.11
1011.11
1011.11
1011.11
1011.11
1011.11
1011.11
1011.11
1011.11
1011.11
1011.11
1011.12
1011.12
1011.12
1011.12
1011.13
1011.13
1011.13
1011.13
1011.14
1011.14
1011.15
1011.15
1011.15
1011.16
1011.17
1011.17
1011.18
1011.19
1011.2
1011.2
1011.21
1011.23
1011.24
1011.25
1011.26
1011.26
1011.23
1011.05
1010.5
1009.62
1010.5
1011.05
1011.23
1011.26
1011.26
1011.25
1011.24
1011.23
1011.22
1011.21
1011.2
1011.19
1011.18
1011.17
1011.17
1011.16
1011.16
1011.15
1011.15
1011.14
1011.14
1011.13
1011.13
1011.13
1011.13
1011.12
1011.12
1011.12
1011.12
1011.12
1011.11
1011.11
1011.11
1011.11
1011.11
1011.11
1011.11
1011.11
1011.11
1011.11
1011.11
1011.11
1011.11
1011.11
1011.1
1011.1
1011.1
1011.1
1011.1
1011.01
1011.01
1011.01
1011.01
1011.01
1011.01
1011.01
1011.01
1011.01
1011.02
1011.02
1011.02
1011.02
1011.02
1011.02
1011.02
1011.02
1011.02
1011.02
1011.02
1011.03
1011.03
1011.03
1011.03
1011.03
1011.04
1011.04
1011.04
1011.04
1011.05
1011.05
1011.05
1011.06
1011.06
1011.07
1011.07
1011.08
1011.09
1011.09
1011.1
1011.11
1011.12
1011.13
1011.14
1011.15
1011.16
1011.17
1011.18
1011.17
1011.13
1011.09
1011.13
1011.17
1011.18
1011.17
1011.16
1011.15
1011.14
1011.13
1011.12
1011.11
1011.1
1011.1
1011.09
1011.08
1011.08
1011.07
1011.06
1011.06
1011.06
1011.05
1011.05
1011.04
1011.04
1011.04
1011.04
1011.03
1011.03
1011.03
1011.03
1011.03
1011.03
1011.02
1011.02
1011.02
1011.02
1011.02
1011.02
1011.02
1011.02
1011.02
1011.02
1011.02
1011.02
1011.02
1011.02
1011.02
1011.01
1011.01
1011.01
1010.92
1010.92
1010.92
1010.92
1010.92
1010.92
1010.92
1010.92
1010.93
1010.93
1010.93
1010.93
1010.93
1010.93
1010.93
1010.93
1010.93
1010.93
1010.93
1010.93
1010.94
1010.94
1010.94
1010.94
1010.94
1010.95
1010.95
1010.95
1010.95
1010.96
1010.96
1010.96
1010.97
1010.97
1010.98
1010.98
1010.99
1011
1011
1011.01
1011.02
1011.03
1011.03
1011.04
1011.05
1011.06
1011.07
1011.08
1011.09
1011.09
1011.09
1011.09
1011.09
1011.08
1011.07
1011.06
1011.05
1011.04
1011.03
1011.03
1011.02
1011.01
1011
1011
1010.99
1010.98
1010.98
1010.97
1010.97
1010.96
1010.96
1010.96
1010.95
1010.95
1010.95
1010.95
1010.94
1010.94
1010.94
1010.94
1010.94
1010.94
1010.93
1010.93
1010.93
1010.93
1010.93
1010.93
1010.93
1010.93
1010.93
1010.93
1010.93
1010.93
1010.93
1010.93
1010.93
1010.93
1010.93
1010.93
1010.83
1010.83
1010.83
1010.83
1010.83
1010.83
1010.83
1010.84
1010.84
1010.84
1010.84
1010.84
1010.84
1010.84
1010.84
1010.84
1010.84
1010.84
1010.84
1010.84
1010.85
1010.85
1010.85
1010.85
1010.85
1010.86
1010.86
1010.86
1010.86
1010.87
1010.87
1010.87
1010.88
1010.88
1010.89
1010.89
1010.9
1010.9
1010.91
1010.92
1010.92
1010.93
1010.94
1010.95
1010.95
1010.96
1010.97
1010.98
1010.98
1010.99
1010.99
1010.99
1010.98
1010.98
1010.97
1010.96
1010.95
1010.95
1010.94
1010.93
1010.92
1010.92
1010.91
1010.9
1010.9
1010.89
1010.89
1010.88
1010.88
1010.87
1010.87
1010.87
1010.86
1010.86
1010.86
1010.86
1010.85
1010.85
1010.85
1010.85
1010.85
1010.85
1010.84
1010.84
1010.84
1010.84
1010.84
1010.84
1010.84
1010.84
1010.84
1010.84
1010.84
1010.84
1010.84
1010.84
1010.84
1010.84
1010.84
1010.84
1010.74
1010.74
1010.74
1010.74
1010.74
1010.74
1010.75
1010.75
1010.75
1010.75
1010.75
1010.75
1010.75
1010.75
1010.75
1010.75
1010.75
1010.75
1010.75
1010.75
1010.76
1010.76
1010.76
1010.76
1010.76
1010.76
1010.77
1010.77
1010.77
1010.78
1010.78
1010.78
1010.79
1010.79
1010.79
1010.8
1010.8
1010.81
1010.81
1010.82
1010.83
1010.83
1010.84
1010.85
1010.85
1010.86
1010.87
1010.87
1010.88
1010.88
1010.88
1010.88
1010.88
1010.87
1010.87
1010.86
1010.85
1010.85
1010.84
1010.83
1010.83
1010.82
1010.81
1010.81
1010.8
1010.8
1010.79
1010.79
1010.79
1010.78
1010.78
1010.78
1010.77
1010.77
1010.77
1010.77
1010.76
1010.76
1010.76
1010.76
1010.76
1010.76
1010.75
1010.75
1010.75
1010.75
1010.75
1010.75
1010.75
1010.75
1010.75
1010.75
1010.75
1010.75
1010.75
1010.75
1010.75
1010.75
1010.75
1010.75
1010.65
1010.65
1010.65
1010.65
1010.65
1010.66
1010.66
1010.66
1010.66
1010.66
1010.66
1010.66
1010.66
1010.66