/*--------------------------------*- C++ -*----------------------------------*\
  =========                 |
  \\      /  F ield         | OpenFOAM: The Open Source CFD Toolbox
   \\    /   O peration     | Website:  https://openfoam.org
    \\  /    A nd           | Version:  7
     \\/     M anipulation  |
\*---------------------------------------------------------------------------*/
FoamFile
{
    version     2.0;
    format      ascii;
    class       volScalarField;
    location    "6825600000";
    object      T;
}
// * * * * * * * * * * * * * * * * * * * * * * * * * * * * * * * * * * * * * //

dimensions      [0 0 0 1 0 0 0];

internalField   nonuniform List<scalar> 
5000
(
543.655
543.65
543.64
543.625
543.605
543.58
543.55
543.517
543.481
543.442
543.405
543.37
543.343
543.329
543.337
543.377
543.462
543.612
543.849
544.201
544.701
545.391
546.319
547.53
549.086
551.052
553.49
556.466
560.04
564.265
569.183
574.815
581.16
588.188
595.835
603.903
612.013
619.954
627.62
634.829
642.247
647.786
660.754
659.758
661.547
681.909
706.825
724.984
747.605
799.561
695.985
652.034
651.543
701.524
707.147
663.276
649.257
660.185
658.04
642.488
638.471
629.719
621.247
612.515
603.863
595.618
587.937
580.903
574.568
568.955
564.062
559.862
556.311
553.356
550.935
548.985
547.442
546.24
545.323
544.642
544.149
543.804
543.573
543.429
543.348
543.313
543.309
543.326
543.356
543.393
543.434
543.474
543.512
543.547
543.578
543.604
543.625
543.64
543.651
543.656
486.995
486.98
486.95
486.905
486.844
486.767
486.673
486.561
486.431
486.282
486.112
485.923
485.714
485.486
485.241
484.981
484.714
484.447
484.189
483.955
483.761
483.63
483.593
483.655
483.856
484.235
484.817
485.627
486.685
487.999
489.559
491.334
493.264
495.257
497.166
498.66
499.288
499.372
499.635
500.763
504.116
509.342
520.562
524.48
544.517
572.563
578.002
585.552
602.071
709.142
617.033
541.047
527.523
572.363
607.317
566.757
503.712
509.093
516.599
505.526
506.408
505.057
503.714
502.013
499.845
497.519
495.209
493.004
490.969
489.157
487.598
486.307
485.28
484.503
483.954
483.606
483.433
483.392
483.454
483.607
483.819
484.07
484.343
484.625
484.904
485.175
485.43
485.668
485.885
486.082
486.258
486.413
486.548
486.664
486.762
486.842
486.905
486.951
486.982
486.997
435.808
435.787
435.745
435.681
435.595
435.486
435.352
435.192
435.005
434.789
434.541
434.261
433.945
433.593
433.204
432.778
432.315
431.819
431.294
430.746
430.185
429.621
429.069
428.537
428.043
427.603
427.228
426.922
426.68
426.483
426.29
426.04
425.648
425.011
424.031
422.643
421.102
420.317
421.672
426.266
434.977
447.109
461.536
475.163
491.051
503.659
513.184
524.851
543.798
681.264
597.859
516.443
485.227
482.867
496.263
480.9
443.047
434.193
431.592
426.521
424.654
423.73
423.602
424.098
424.649
425.113
425.456
425.684
425.833
425.951
426.084
426.268
426.521
426.851
427.255
427.726
428.25
428.81
429.389
429.979
430.564
431.133
431.678
432.193
432.672
433.114
433.517
433.881
434.208
434.498
434.755
434.979
435.173
435.338
435.477
435.591
435.68
435.746
435.789
435.811
392.304
392.281
392.235
392.165
392.071
391.951
391.805
391.63
391.426
391.189
390.918
390.61
390.264
389.876
389.446
388.971
388.451
387.888
387.282
386.636
385.956
385.247
384.516
383.768
383.01
382.248
381.48
380.7
379.891
379.019
378.039
376.889
375.516
373.912
372.205
370.81
370.754
373.079
379.579
390.97
406.5
423.943
440.661
454.458
465.423
474.051
483.406
497.186
519.223
666.118
615.318
513.131
470.995
449.73
437.7
424.837
407.708
396.629
388.898
382.133
376.994
373.527
371.819
371.49
372.154
373.291
374.561
375.777
376.87
377.842
378.722
379.546
380.343
381.129
381.913
382.698
383.481
384.254
385.01
385.744
386.447
387.114
387.74
388.322
388.859
389.349
389.794
390.195
390.553
390.871
391.152
391.397
391.608
391.789
391.941
392.065
392.162
392.234
392.282
392.306
357.4
357.378
357.335
357.27
357.181
357.069
356.933
356.77
356.579
356.358
356.106
355.82
355.499
355.14
354.741
354.301
353.82
353.297
352.732
352.128
351.486
350.809
350.101
349.363
348.597
347.803
346.975
346.102
345.162
344.126
342.958
341.631
340.162
338.693
337.627
337.84
340.381
346.926
358.56
374.947
393.966
412.335
426.941
436.57
443.223
450.387
461.846
481.944
520.17
659.459
626.952
524.12
473.61
444.974
424.243
406.213
389.748
376.544
366.092
357.322
349.895
344.002
340.006
337.962
337.466
338.023
339.135
340.425
341.694
342.867
343.933
344.911
345.825
346.692
347.526
348.333
349.116
349.873
350.601
351.298
351.959
352.582
353.164
353.703
354.2
354.653
355.065
355.436
355.768
356.063
356.323
356.551
356.749
356.918
357.059
357.175
357.266
357.334
357.379
357.401
330.891
330.873
330.837
330.782
330.709
330.615
330.501
330.365
330.207
330.023
329.815
329.578
329.313
329.017
328.69
328.329
327.935
327.507
327.045
326.549
326.022
325.464
324.876
324.259
323.612
322.932
322.213
321.443
320.607
319.682
318.655
317.537
316.421
315.569
315.6
317.358
322.243
331.531
345.611
363.162
381.113
395.931
405.728
411.859
418.377
429.063
446.877
475.034
524.322
654.892
632.464
544.523
486.888
452.822
426.117
402.618
381.831
364.78
351.716
341.49
333.009
325.943
320.552
317.085
315.427
315.095
315.609
316.534
317.58
318.604
319.558
320.434
321.245
322.004
322.723
323.41
324.068
324.698
325.3
325.873
326.415
326.924
327.4
327.841
328.247
328.618
328.956
329.261
329.535
329.779
329.995
330.184
330.348
330.489
330.607
330.703
330.779
330.836
330.873
330.892
311.793
311.78
311.752
311.71
311.654
311.583
311.496
311.392
311.272
311.133
310.975
310.797
310.597
310.375
310.13
309.86
309.566
309.247
308.903
308.534
308.142
307.726
307.286
306.823
306.335
305.82
305.271
304.68
304.037
303.332
302.569
301.788
301.124
300.904
301.702
304.442
310.269
320.008
333.388
348.524
362.443
372.816
379.87
386.925
398.143
416.168
441.404
475.518
531.023
651.345
634.906
564.055
503.993
466.667
435.645
406.317
379.725
357.753
341.466
329.732
320.809
313.607
307.923
303.917
301.588
300.64
300.588
301.07
301.771
302.521
303.244
303.919
304.543
305.125
305.673
306.193
306.687
307.159
307.608
308.034
308.436
308.815
309.168
309.497
309.799
310.077
310.33
310.559
310.765
310.949
311.112
311.255
311.38
311.486
311.576
311.65
311.708
311.751
311.78
311.794
298.72
298.71
298.69
298.661
298.621
298.571
298.51
298.437
298.352
298.255
298.144
298.02
297.881
297.726
297.556
297.369
297.166
296.946
296.709
296.456
296.186
295.899
295.597
295.278
294.94
294.583
294.202
293.791
293.347
292.866
292.363
291.891
291.589
291.759
292.899
295.785
301.232
309.644
320.427
331.832
341.793
349.586
357.107
368.302
386.469
412.199
443.218
481.773
539.825
648.676
636.325
579.497
521.266
482.288
447.902
413.341
380.657
353.618
333.826
320.402
311.171
304.328
299.073
295.263
292.86
291.653
291.291
291.434
291.828
292.31
292.8
293.265
293.7
294.105
294.485
294.845
295.186
295.511
295.82
296.113
296.389
296.649
296.893
297.119
297.328
297.52
297.695
297.854
297.998
298.126
298.241
298.341
298.428
298.503
298.567
298.619
298.66
298.69
298.71
298.72
290.206
290.199
290.186
290.167
290.141
290.107
290.067
290.019
289.964
289.9
289.828
289.746
289.656
289.555
289.445
289.324
289.193
289.051
288.898
288.735
288.562
288.378
288.184
287.979
287.762
287.533
287.288
287.025
286.743
286.443
286.142
285.89
285.808
286.126
287.241
289.704
294.039
300.399
308.212
316.267
323.574
330.701
340.442
356.688
381.671
413.89
450.514
491.926
551.424
646.504
636.8
590.607
536.99
497.428
460.338
421.061
382.829
350.962
327.914
312.909
303.439
297.121
292.6
289.378
287.283
286.132
285.67
285.627
285.812
286.091
286.392
286.687
286.965
287.226
287.471
287.702
287.921
288.13
288.328
288.516
288.693
288.86
289.017
289.163
289.298
289.422
289.536
289.639
289.732
289.816
289.891
289.957
290.014
290.063
290.105
290.139
290.166
290.186
290.2
290.206
284.925
284.921
284.913
284.901
284.884
284.864
284.839
284.809
284.775
284.736
284.691
284.642
284.586
284.525
284.457
284.384
284.304
284.218
284.125
284.027
283.922
283.811
283.694
283.571
283.44
283.302
283.156
282.999
282.832
282.659
282.493
282.374
282.392
282.708
283.6
285.425
288.498
292.873
298.169
303.764
309.543
316.91
329.088
349.787
380.588
418.972
460.122
503.713
563.85
644.16
636.67
598.453
550.233
510.949
471.563
427.849
384.558
348.649
323.002
306.851
297.329
291.595
287.866
285.342
283.708
282.774
282.347
282.239
282.305
282.45
282.622
282.795
282.961
283.117
283.265
283.404
283.536
283.662
283.781
283.894
284.002
284.103
284.197
284.286
284.368
284.444
284.513
284.576
284.633
284.685
284.731
284.771
284.806
284.837
284.862
284.884
284.9
284.913
284.921
284.925
281.802
281.799
281.795
281.788
281.778
281.766
281.752
281.735
281.715
281.692
281.666
281.637
281.605
281.57
281.531
281.488
281.443
281.393
281.34
281.284
281.224
281.161
281.095
281.025
280.951
280.873
280.79
280.702
280.61
280.516
280.432
280.383
280.43
280.678
281.302
282.518
284.514
287.321
290.764
294.681
299.544
307.247
321.26
345.292
380.675
424.447
469.952
515.413
574.163
641.662
636.218
604.048
560.941
522.427
480.882
432.828
385.262
346.009
318.586
301.886
292.592
287.485
284.495
282.619
281.442
280.763
280.432
280.321
280.331
280.4
280.491
280.587
280.679
280.767
280.851
280.93
281.005
281.076
281.144
281.209
281.27
281.328
281.382
281.432
281.479
281.523
281.563
281.599
281.633
281.662
281.689
281.712
281.733
281.751
281.766
281.778
281.788
281.795
281.8
281.802
280.039
280.038
280.035
280.032
280.026
280.02
280.012
280.002
279.991
279.979
279.965
279.949
279.931
279.912
279.891
279.867
279.843
279.816
279.787
279.757
279.724
279.69
279.655
279.617
279.577
279.536
279.492
279.445
279.397
279.35
279.31
279.294
279.338
279.506
279.901
280.647
281.855
283.562
285.743
288.528
292.728
300.499
315.518
341.755
380.741
429.057
478.867
525.986
581.679
638.878
635.311
607.994
569.405
531.766
487.976
435.573
384.248
342.657
314.376
297.751
288.973
284.526
282.181
280.839
280.041
279.586
279.357
279.269
279.26
279.289
279.334
279.383
279.432
279.479
279.524
279.566
279.606
279.645
279.681
279.716
279.749
279.78
279.81
279.837
279.863
279.886
279.908
279.928
279.946
279.963
279.977
279.99
280.001
280.011
280.02
280.026
280.032
280.036
280.038
280.04
279.089
279.088
279.087
279.085
279.082
279.079
279.075
279.07
279.064
279.057
279.05
279.042
279.033
279.022
279.011
279
278.987
278.973
278.958
278.943
278.926
278.909
278.89
278.871
278.851
278.83
278.808
278.785
278.761
278.739
278.721
278.718
278.75
278.853
279.083
279.511
280.201
281.196
282.557
284.568
288.192
295.697
310.944
338.309
379.816
432.024
486.143
534.847
586.696
635.559
633.867
610.669
575.964
539.021
492.715
436.407
381.576
338.566
310.255
294.258
286.234
282.456
280.651
279.719
279.202
278.916
278.771
278.711
278.698
278.709
278.73
278.754
278.778
278.801
278.824
278.845
278.866
278.885
278.904
278.922
278.939
278.955
278.97
278.984
278.997
279.009
279.021
279.031
279.04
279.049
279.057
279.063
279.069
279.074
279.079
279.082
279.085
279.087
279.089
279.089
278.599
278.598
278.598
278.597
278.595
278.594
278.592
278.589
278.586
278.583
278.579
278.575
278.571
278.566
278.56
278.555
278.548
278.542
278.534
278.527
278.519
278.51
278.502
278.492
278.483
278.473
278.462
278.451
278.44
278.43
278.423
278.424
278.444
278.503
278.628
278.86
279.235
279.797
280.643
282.111
285.192
292.158
306.982
334.513
377.568
433.153
491.32
541.821
589.797
631.744
632.016
612.313
580.935
544.342
494.884
434.575
377.361
333.81
306.207
291.279
284.168
281.038
279.674
279.04
278.718
278.547
278.461
278.424
278.414
278.417
278.426
278.436
278.448
278.459
278.47
278.48
278.49
278.499
278.508
278.517
278.525
278.533
278.54
278.547
278.553
278.559
278.565
278.57
278.575
278.579
278.583
278.586
278.589
278.592
278.594
278.595
278.597
278.598
278.599
278.599
278.357
278.356
278.356
278.356
278.355
278.354
278.353
278.352
278.351
278.349
278.347
278.346
278.343
278.341
278.339
278.336
278.333
278.33
278.327
278.323
278.319
278.315
278.311
278.307
278.303
278.298
278.294
278.289
278.284
278.28
278.278
278.279
278.291
278.322
278.387
278.506
278.702
279.013
279.541
280.618
283.184
289.42
303.329
330.225
373.917
432.25
494.243
547.023
591.783
627.974
630.163
613.262
584.648
547.914
495.092
431.058
372.014
328.632
302.304
288.737
282.609
280.08
279.068
278.644
278.448
278.351
278.303
278.281
278.274
278.275
278.278
278.282
278.287
278.292
278.297
278.302
278.306
278.31
278.314
278.318
278.322
278.326
278.329
278.332
278.335
278.338
278.341
278.343
278.345
278.347
278.349
278.351
278.352
278.353
278.354
278.355
278.356
278.356
278.357
278.357
278.242
278.242
278.242
278.241
278.241
278.241
278.24
278.24
278.239
278.238
278.238
278.237
278.236
278.235
278.234
278.233
278.231
278.23
278.229
278.227
278.226
278.224
278.222
278.22
278.219
278.217
278.215
278.213
278.211
278.21
278.209
278.211
278.217
278.232
278.264
278.323
278.423
278.593
278.925
279.713
281.799
287.206
299.88
325.563
369.183
429.564
495.324
550.719
593.334
624.961
628.659
613.948
587.386
549.812
493.381
426.256
365.985
323.332
298.651
286.585
281.432
279.437
278.7
278.421
278.304
278.25
278.224
278.213
278.208
278.208
278.209
278.21
278.212
278.214
278.216
278.218
278.22
278.222
278.223
278.225
278.227
278.228
278.23
278.231
278.232
278.234
278.235
278.236
278.237
278.238
278.238
278.239
278.24
278.24
278.241
278.241
278.241
278.242
278.242
278.242
278.19
278.19
278.189
278.189
278.189
278.189
278.189
278.189
278.188
278.188
278.188
278.188
278.187
278.187
278.186
278.186
278.185
278.185
278.184
278.184
278.183
278.182
278.182
278.181
278.18
278.18
278.179
278.178
278.178
278.178
278.178
278.179
278.182
278.19
278.205
278.233
278.282
278.375
278.586
279.157
280.81
285.367
296.642
320.735
363.724
425.569
494.653
552.998
594.685
623.054
627.662
614.61
589.38
550.266
490.555
420.75
359.717
318.188
295.347
284.796
280.549
279.007
278.479
278.298
278.229
278.2
278.187
278.18
278.178
278.177
278.177
278.178
278.178
278.179
278.18
278.18
278.181
278.182
278.182
278.183
278.183
278.184
278.185
278.185
278.186
278.186
278.187
278.187
278.188
278.188
278.188
278.188
278.189
278.189
278.189
278.189
278.189
278.19
278.19
278.19
278.167
278.167
278.167
278.167
278.167
278.167
278.166
278.166
278.166
278.166
278.166
278.166
278.166
278.166
278.166
278.165
278.165
278.165
278.165
278.165
278.164
278.164
278.164
278.164
278.164
278.164
278.163
278.163
278.163
278.163
278.164
278.164
278.166
278.17
278.177
278.19
278.215
278.266
278.399
278.807
280.083
283.832
293.67
315.949
357.871
420.68
492.655
553.986
595.819
622.103
627.191
615.336
590.861
549.971
487.137
414.969
353.523
313.383
292.449
283.337
279.891
278.72
278.348
278.231
278.192
278.176
278.169
278.166
278.164
278.164
278.163
278.163
278.163
278.163
278.164
278.164
278.164
278.164
278.164
278.164
278.165
278.165
278.165
278.165
278.165
278.166
278.166
278.166
278.166
278.166
278.166
278.166
278.166
278.166
278.167
278.167
278.167
278.167
278.167
278.167
278.157
278.157
278.157
278.157
278.157
278.157
278.157
278.157
278.157
278.157
278.157
278.157
278.157
278.157
278.157
278.157
278.157
278.157
278.157
278.157
278.157
278.157
278.157
278.157
278.157
278.157
278.157
278.157
278.157
278.157
278.158
278.158
278.159
278.161
278.164
278.171
278.183
278.211
278.296
278.581
279.545
282.565
291.008
311.345
351.824
415.164
489.766
553.983
596.716
621.742
627.152
616.107
591.931
549.073
483.451
409.124
347.521
308.973
289.952
282.165
279.406
278.529
278.271
278.196
278.173
278.165
278.161
278.159
278.158
278.158
278.157
278.157
278.157
278.157
278.157
278.157
278.157
278.157
278.157
278.157
278.157
278.157
278.157
278.157
278.157
278.157
278.157
278.157
278.157
278.157
278.157
278.157
278.157
278.157
278.157
278.157
278.157
278.157
278.157
278.157
278.153
278.153
278.153
278.153
278.153
278.153
278.153
278.153
278.153
278.153
278.153
278.153
278.153
278.153
278.153
278.153
278.153
278.153
278.153
278.153
278.153
278.153
278.154
278.154
278.154
278.154
278.154
278.154
278.154
278.155
278.155
278.155
278.156
278.157
278.159
278.162
278.168
278.184
278.237
278.433
279.144
281.529
288.651
306.952
345.618
409.074
486.15
553.356
597.254
621.608
627.199
616.851
592.646
547.898
479.64
403.167
341.64
304.903
287.799
281.228
279.048
278.402
278.225
278.178
278.164
278.159
278.157
278.156
278.156
278.155
278.155
278.154
278.154
278.154
278.154
278.154
278.154
278.154
278.153
278.153
278.153
278.153
278.153
278.153
278.153
278.153
278.153
278.153
278.153
278.153
278.153
278.153
278.153
278.153
278.153
278.153
278.153
278.153
278.153
278.153
278.152
278.152
278.152
278.152
278.152
278.152
278.152
278.152
278.152
278.152
278.152
278.152
278.152
278.152
278.152
278.152
278.152
278.152
278.152
278.152
278.152
278.152
278.152
278.152
278.152
278.153
278.153
278.153
278.153
278.153
278.154
278.154
278.155
278.155
278.156
278.158
278.161
278.17
278.203
278.335
278.846
280.684
286.56
302.72
339.137
402.239
481.751
552.048
597.318
621.503
627.302
617.514
593.133
546.723
475.55
396.803
335.663
301.049
285.913
280.47
278.783
278.316
278.197
278.168
278.16
278.157
278.156
278.155
278.154
278.154
278.154
278.153
278.153
278.153
278.153
278.152
278.152
278.152
278.152
278.152
278.152
278.152
278.152
278.152
278.152
278.152
278.152
278.152
278.152
278.152
278.152
278.152
278.152
278.152
278.152
278.152
278.152
278.152
278.152
278.152
278.151
278.151
278.151
278.151
278.151
278.151
278.151
278.151
278.151
278.151
278.151
278.151
278.151
278.151
278.151
278.151
278.151
278.151
278.151
278.151
278.152
278.152
278.152
278.152
278.152
278.152
278.152
278.152
278.153
278.153
278.153
278.153
278.154
278.154
278.155
278.156
278.158
278.163
278.183
278.269
278.624
279.992
284.689
298.571
332.178
394.285
476.266
550.236
597.222
621.358
627.398
618.069
593.488
545.405
470.69
389.544
329.309
297.285
284.226
279.85
278.585
278.258
278.18
278.162
278.157
278.156
278.155
278.154
278.154
278.153
278.153
278.153
278.152
278.152
278.152
278.152
278.152
278.152
278.152
278.152
278.151
278.151
278.151
278.151
278.151
278.151
278.151
278.151
278.151
278.151
278.151
278.151
278.151
278.151
278.151
278.151
278.151
278.151
278.151
278.151
278.151
278.151
278.151
278.151
278.151
278.151
278.151
278.151
278.151
278.151
278.151
278.151
278.151
278.151
278.151
278.151
278.151
278.151
278.151
278.151
278.151
278.151
278.151
278.152
278.152
278.152
278.152
278.152
278.152
278.152
278.153
278.153
278.153
278.154
278.154
278.155
278.156
278.159
278.171
278.224
278.46
279.43
283.015
294.469
324.554
384.687
469.046
547.667
596.882
621.128
627.407
618.512
593.65
543.489
464.281
380.775
322.33
293.544
282.706
279.342
278.437
278.219
278.17
278.159
278.156
278.155
278.154
278.154
278.153
278.153
278.153
278.152
278.152
278.152
278.152
278.152
278.152
278.151
278.151
278.151
278.151
278.151
278.151
278.151
278.151
278.151
278.151
278.151
278.151
278.151
278.151
278.151
278.151
278.151
278.151
278.151
278.151
278.151
278.151
278.151
278.151
278.151
278.151
278.151
278.151
278.151
278.151
278.151
278.151
278.151
278.151
278.151
278.151
278.151
278.151
278.151
278.151
278.151
278.151
278.151
278.151
278.151
278.151
278.151
278.151
278.152
278.152
278.152
278.152
278.152
278.152
278.153
278.153
278.153
278.154
278.154
278.155
278.157
278.164
278.195
278.341
278.984
281.551
290.476
316.213
372.87
459.087
543.653
596.162
620.792
627.363
618.81
593.534
540.239
455.252
369.855
314.619
289.864
281.362
278.934
278.329
278.192
278.163
278.157
278.155
278.154
278.154
278.153
278.153
278.153
278.152
278.152
278.152
278.152
278.152
278.152
278.151
278.151
278.151
278.151
278.151
278.151
278.151
278.151
278.151
278.151
278.151
278.151
278.151
278.151
278.151
278.151
278.151
278.151
278.151
278.151
278.151
278.151
278.151
278.151
278.151
278.151
278.151
278.151
278.151
278.151
278.151
278.151
278.151
278.151
278.151
278.151
278.151
278.151
278.151
278.151
278.151
278.151
278.151
278.151
278.151
278.151
278.151
278.151
278.151
278.151
278.152
278.152
278.152
278.152
278.152
278.152
278.153
278.153
278.153
278.154
278.155
278.156
278.16
278.177
278.259
278.651
280.337
286.761
307.355
358.372
445.008
536.984
594.848
620.334
627.215
618.822
592.862
534.403
442.162
356.25
306.325
286.399
280.233
278.625
278.254
278.175
278.159
278.156
278.154
278.154
278.153
278.153
278.153
278.152
278.152
278.152
278.152
278.152
278.151
278.151
278.151
278.151
278.151
278.151
278.151
278.151
278.151
278.151
278.151
278.151
278.151
278.151
278.151
278.151
278.151
278.151
278.151
278.151
278.151
278.151
278.151
278.151
278.151
278.151
278.151
278.151
278.151
278.151
278.151
278.151
278.151
278.151
278.151
278.151
278.151
278.151
278.151
278.151
278.151
278.151
278.151
278.151
278.151
278.151
278.151
278.151
278.151
278.151
278.151
278.151
278.151
278.152
278.152
278.152
278.152
278.152
278.152
278.153
278.153
278.153
278.154
278.155
278.157
278.166
278.208
278.421
279.414
283.568
298.521
341.158
425.041
525.461
592.362
619.695
626.95
618.664
591.018
523.745
423.166
339.844
297.942
283.382
279.364
278.41
278.206
278.165
278.157
278.155
278.154
278.153
278.153
278.153
278.152
278.152
278.152
278.152
278.152
278.151
278.151
278.151
278.151
278.151
278.151
278.151
278.151
278.151
278.151
278.151
278.151
278.151
278.151
278.151
278.151
278.151
278.151
278.151
278.151
278.151
278.151
278.151
278.151
278.151
278.151
278.151
278.151
278.151
278.151
278.151
278.151
278.151
278.151
278.151
278.151
278.151
278.151
278.151
278.151
278.151
278.151
278.151
278.151
278.151
278.151
278.151
278.151
278.151
278.151
278.151
278.151
278.151
278.151
278.151
278.151
278.152
278.152
278.152
278.152
278.152
278.153
278.153
278.154
278.154
278.155
278.159
278.179
278.281
278.79
281.125
290.586
322.171
397.391
505.075
586.864
618.636
626.546
618.031
586.18
504.19
396.368
321.496
290.316
281.044
278.77
278.276
278.178
278.159
278.155
278.154
278.153
278.153
278.153
278.152
278.152
278.152
278.152
278.152
278.151
278.151
278.151
278.151
278.151
278.151
278.151
278.151
278.151
278.151
278.151
278.151
278.151
278.151
278.151
278.151
278.151
278.151
278.151
278.151
278.151
278.151
278.151
278.151
278.151
278.151
278.151
278.151
278.151
278.151
278.151
278.151
278.151
278.151
278.151
278.151
278.151
278.151
278.151
278.151
278.151
278.151
278.151
278.151
278.151
278.151
278.151
278.151
278.151
278.151
278.151
278.151
278.151
278.151
278.151
278.151
278.151
278.151
278.152
278.152
278.152
278.152
278.152
278.153
278.153
278.154
278.154
278.156
278.164
278.207
278.429
279.53
284.495
303.898
361.93
469.37
572.603
616.127
625.771
615.894
572.547
469.159
361.525
303.632
284.395
279.501
278.422
278.205
278.164
278.156
278.154
278.153
278.153
278.153
278.152
278.152
278.152
278.152
278.152
278.151
278.151
278.151
278.151
278.151
278.151
278.151
278.151
278.151
278.151
278.151
278.151
278.151
278.151
278.151
278.151
278.151
278.151
278.151
278.151
278.151
278.151
278.151
278.151
278.151
278.151
278.151
278.151
278.151
278.151
278.151
278.151
278.151
278.151
278.151
278.151
278.151
278.151
278.151
278.151
278.151
278.151
278.151
278.151
278.151
278.151
278.151
278.151
278.151
278.151
278.151
278.151
278.151
278.151
278.151
278.151
278.151
278.151
278.151
278.151
278.152
278.152
278.152
278.152
278.152
278.153
278.153
278.154
278.155
278.158
278.173
278.255
278.68
280.748
289.881
323.992
412.267
534.602
606.733
622.754
606.853
534.985
412.41
323.9
289.804
280.72
278.672
278.253
278.173
278.158
278.155
278.154
278.153
278.153
278.152
278.152
278.152
278.152
278.151
278.151
278.151
278.151
278.151
278.151
278.151
278.151
278.151
278.151
278.151
278.151
278.151
278.151
278.151
278.151
278.151
278.151
278.151
278.151
278.151
278.151
278.151
278.151
278.151
278.151
278.151
278.151
278.151
278.151
278.151
278.151
278.151
278.151
278.151
278.151
278.151
278.151
278.151
278.151
278.151
278.151
278.151
278.151
278.151
278.151
278.151
278.151
278.151
278.151
278.151
278.151
278.151
278.151
278.151
278.151
278.151
278.151
278.151
278.151
278.151
278.151
278.151
278.151
278.152
278.152
278.152
278.152
278.153
278.153
278.154
278.155
278.16
278.186
278.321
279.004
282.192
295.58
342.326
449.047
563.422
603.175
563.823
449.531
342.457
295.564
282.174
278.997
278.319
278.185
278.16
278.155
278.154
278.153
278.153
278.152
278.152
278.152
278.152
278.151
278.151
278.151
278.151
278.151
278.151
278.151
278.151
278.151
278.151
278.151
278.151
278.151
278.151
278.151
278.151
278.151
278.151
278.151
278.151
278.151
278.151
278.151
278.151
278.151
278.151
278.151
278.151
278.151
278.151
278.151
278.151
278.151
278.151
278.151
278.151
278.151
278.151
278.151
278.151
278.151
278.151
278.151
278.151
278.151
278.151
278.151
278.151
278.151
278.151
278.151
278.151
278.151
278.151
278.151
278.151
278.151
278.151
278.151
278.151
278.151
278.151
278.151
278.151
278.151
278.151
278.152
278.152
278.152
278.152
278.153
278.153
278.154
278.155
278.163
278.199
278.383
279.261
283.074
297.655
343.148
435.545
505.943
435.826
343.287
297.676
283.07
279.258
278.382
278.199
278.163
278.155
278.154
278.153
278.153
278.152
278.152
278.152
278.151
278.151
278.151
278.151
278.151
278.151
278.151
278.151
278.151
278.151
278.151
278.151
278.151
278.151
278.151
278.151
278.151
278.151
278.151
278.151
278.151
278.151
278.151
278.151
278.151
278.151
278.151
278.151
278.151
278.151
278.151
278.151
278.151
278.151
278.151
278.151
278.151
278.151
278.151
278.151
278.151
278.151
278.151
278.151
278.151
278.151
278.151
278.151
278.151
278.151
278.151
278.151
278.151
278.151
278.151
278.151
278.151
278.151
278.151
278.151
278.151
278.151
278.151
278.151
278.151
278.151
278.151
278.151
278.151
278.151
278.152
278.152
278.152
278.152
278.153
278.154
278.156
278.165
278.206
278.403
279.255
282.54
293.301
319.664
351.031
319.715
293.32
282.543
279.255
278.403
278.206
278.164
278.156
278.154
278.153
278.152
278.152
278.152
278.152
278.151
278.151
278.151
278.151
278.151
278.151
278.151
278.151
278.151
278.151
278.151
278.151
278.151
278.151
278.151
278.151
278.151
278.151
278.151
278.151
278.151
278.151
278.151
278.151
278.151
278.151
278.151
278.151
278.151
278.151
278.151
278.151
278.15
278.15
278.15
278.151
278.151
278.151
278.151
278.151
278.151
278.151
278.151
278.151
278.151
278.151
278.151
278.151
278.151
278.151
278.151
278.151
278.151
278.151
278.151
278.151
278.151
278.151
278.151
278.151
278.151
278.151
278.151
278.151
278.151
278.151
278.151
278.151
278.151
278.151
278.151
278.151
278.152
278.152
278.152
278.152
278.153
278.154
278.156
278.164
278.201
278.357
278.931
280.71
284.784
289.515
284.789
280.712
278.931
278.357
278.201
278.164
278.156
278.154
278.153
278.152
278.152
278.152
278.152
278.151
278.151
278.151
278.151
278.151
278.151
278.151
278.151
278.151
278.151
278.151
278.151
278.151
278.151
278.151
278.151
278.151
278.151
278.15
278.15
278.15
278.15
278.15
278.15
278.15
278.15
278.15
278.15
278.15
278.15
278.15
278.15
278.15
278.15
278.15
278.15
278.15
278.15
278.15
278.15
278.15
278.15
278.15
278.15
278.15
278.15
278.15
278.15
278.15
278.15
278.15
278.15
278.15
278.15
278.15
278.15
278.15
278.15
278.15
278.151
278.151
278.151
278.151
278.151
278.151
278.151
278.151
278.151
278.151
278.151
278.151
278.151
278.151
278.151
278.151
278.152
278.152
278.152
278.153
278.153
278.155
278.162
278.186
278.269
278.507
278.992
279.474
278.993
278.508
278.27
278.186
278.162
278.155
278.153
278.153
278.152
278.152
278.152
278.151
278.151
278.151
278.151
278.151
278.151
278.151
278.151
278.151
278.151
278.151
278.151
278.151
278.15
278.15
278.15
278.15
278.15
278.15
278.15
278.15
278.15
278.15
278.15
278.15
278.15
278.15
278.15
278.15
278.15
278.15
278.15
278.15
278.15
278.15
278.15
278.15
278.15
278.15
278.15
278.15
278.15
278.15
278.15
278.15
278.15
278.15
278.15
278.15
278.15
278.15
278.15
278.15
278.15
278.15
278.15
278.15
278.15
278.15
278.15
278.15
278.15
278.15
278.15
278.15
278.15
278.15
278.151
278.151
278.151
278.151
278.151
278.151
278.151
278.151
278.151
278.151
278.151
278.152
278.152
278.152
278.152
278.153
278.154
278.158
278.169
278.197
278.248
278.293
278.248
278.197
278.169
278.158
278.154
278.153
278.152
278.152
278.152
278.152
278.151
278.151
278.151
278.151
278.151
278.151
278.151
278.151
278.151
278.151
278.15
278.15
278.15
278.15
278.15
278.15
278.15
278.15
278.15
278.15
278.15
278.15
278.15
278.15
278.15
278.15
278.15
278.15
278.15
278.15
278.15
278.15
278.15
278.15
278.15
278.15
278.15
278.15
278.15
278.15
278.15
278.15
278.15
278.15
278.15
278.15
278.15
278.15
278.15
278.15
278.15
278.15
278.15
278.15
278.15
278.15
278.15
278.15
278.15
278.15
278.15
278.15
278.15
278.15
278.15
278.15
278.15
278.15
278.15
278.15
278.15
278.15
278.151
278.151
278.151
278.151
278.151
278.151
278.151
278.151
278.151
278.152
278.152
278.152
278.153
278.153
278.155
278.158
278.163
278.167
278.163
278.158
278.155
278.153
278.153
278.152
278.152
278.152
278.151
278.151
278.151
278.151
278.151
278.151
278.151
278.151
278.151
278.15
278.15
278.15
278.15
278.15
278.15
278.15
278.15
278.15
278.15
278.15
278.15
278.15
278.15
278.15
278.15
278.15
278.15
278.15
278.15
278.15
278.15
278.15
278.15
278.15
278.15
278.15
278.15
278.15
278.15
278.15
278.15
278.15
278.15
278.15
278.15
278.15
278.15
278.15
278.15
278.15
278.15
278.15
278.15
278.15
278.15
278.15
278.15
278.15
278.15
278.15
278.15
278.15
278.15
278.15
278.15
278.15
278.15
278.15
278.15
278.15
278.15
278.15
278.15
278.15
278.15
278.15
278.151
278.151
278.151
278.151
278.151
278.151
278.151
278.151
278.151
278.152
278.152
278.152
278.152
278.153
278.153
278.154
278.153
278.153
278.152
278.152
278.152
278.152
278.151
278.151
278.151
278.151
278.151
278.151
278.151
278.151
278.15
278.15
278.15
278.15
278.15
278.15
278.15
278.15
278.15
278.15
278.15
278.15
278.15
278.15
278.15
278.15
278.15
278.15
278.15
278.15
278.15
278.15
278.15
278.15
278.15
278.15
278.15
278.15
278.15
278.15
278.15
278.15
278.15
278.15
278.15
278.15
278.15
278.15
278.15
278.15
278.15
278.15
278.15
278.15
278.15
278.15
278.15
278.15
278.15
278.15
278.15
278.15
278.15
278.15
278.15
278.15
278.15
278.15
278.15
278.15
278.15
278.15
278.15
278.15
278.15
278.15
278.15