/*--------------------------------*- C++ -*----------------------------------*\
  =========                 |
  \\      /  F ield         | OpenFOAM: The Open Source CFD Toolbox
   \\    /   O peration     | Website:  https://openfoam.org
    \\  /    A nd           | Version:  7
     \\/     M anipulation  |
\*---------------------------------------------------------------------------*/
FoamFile
{
    version     2.0;
    format      ascii;
    class       volVectorField;
    location    "6825600000";
    object      U;
}
// * * * * * * * * * * * * * * * * * * * * * * * * * * * * * * * * * * * * * //

dimensions      [0 1 -1 0 0 0 0];

internalField   nonuniform List<vector> 
5000
(
(3.68399e-10 -3.92874e-10 0)
(1.10602e-09 -3.93778e-10 0)
(1.84616e-09 -3.95627e-10 0)
(2.59056e-09 -3.98441e-10 0)
(3.34105e-09 -4.02292e-10 0)
(4.09961e-09 -4.07263e-10 0)
(4.86836e-09 -4.13449e-10 0)
(5.64966e-09 -4.20978e-10 0)
(6.44614e-09 -4.30022e-10 0)
(7.26078e-09 -4.40802e-10 0)
(8.09706e-09 -4.53595e-10 0)
(8.95903e-09 -4.68738e-10 0)
(9.85143e-09 -4.86618e-10 0)
(1.07797e-08 -5.07556e-10 0)
(1.17503e-08 -5.32161e-10 0)
(1.27708e-08 -5.6124e-10 0)
(1.38502e-08 -5.94927e-10 0)
(1.4998e-08 -6.33921e-10 0)
(1.62255e-08 -6.78827e-10 0)
(1.75452e-08 -7.30167e-10 0)
(1.89709e-08 -7.88396e-10 0)
(2.05178e-08 -8.53844e-10 0)
(2.22002e-08 -9.24256e-10 0)
(2.4036e-08 -1.00543e-09 0)
(2.60476e-08 -1.09433e-09 0)
(2.82547e-08 -1.18951e-09 0)
(3.06783e-08 -1.29168e-09 0)
(3.33424e-08 -1.40091e-09 0)
(3.62743e-08 -1.51686e-09 0)
(3.95046e-08 -1.63951e-09 0)
(4.30699e-08 -1.76973e-09 0)
(4.70151e-08 -1.90937e-09 0)
(5.13967e-08 -2.06089e-09 0)
(5.62836e-08 -2.22408e-09 0)
(6.17517e-08 -2.39058e-09 0)
(6.79095e-08 -2.6102e-09 0)
(7.50251e-08 -3.04869e-09 0)
(8.35335e-08 -3.66679e-09 0)
(9.38148e-08 -4.37318e-09 0)
(1.06296e-07 -5.30593e-09 0)
(1.21634e-07 -5.744e-09 0)
(1.40692e-07 -8.72561e-09 0)
(1.69408e-07 3.17042e-09 0)
(1.77429e-07 -1.23403e-08 0)
(2.29313e-07 -1.87825e-08 0)
(4.11154e-07 5.32534e-08 0)
(4.38552e-07 3.9035e-08 0)
(4.44943e-07 1.70501e-08 0)
(4.643e-07 1.74807e-08 0)
(-5.05896e-09 4.46649e-07 0)
(-5.3149e-07 1.37206e-07 0)
(-2.25433e-07 -4.46654e-08 0)
(-1.07388e-07 -5.85281e-08 0)
(-1.9865e-07 5.79471e-08 0)
(-3.91525e-07 1.3218e-07 0)
(-2.74125e-07 2.71399e-09 0)
(-1.71712e-07 -3.28646e-08 0)
(-1.54024e-07 -4.37958e-09 0)
(-1.50445e-07 4.4696e-09 0)
(-1.23735e-07 -1.00232e-08 0)
(-1.07848e-07 -4.00815e-09 0)
(-9.56492e-08 -3.93346e-09 0)
(-8.5533e-08 -3.34941e-09 0)
(-7.70068e-08 -2.97665e-09 0)
(-6.96293e-08 -2.74231e-09 0)
(-6.31545e-08 -2.52917e-09 0)
(-5.74386e-08 -2.32838e-09 0)
(-5.23634e-08 -2.14627e-09 0)
(-4.78296e-08 -1.98168e-09 0)
(-4.37586e-08 -1.83077e-09 0)
(-4.00892e-08 -1.69053e-09 0)
(-3.6773e-08 -1.55926e-09 0)
(-3.377e-08 -1.43636e-09 0)
(-3.10462e-08 -1.32175e-09 0)
(-2.85719e-08 -1.21534e-09 0)
(-2.63213e-08 -1.11654e-09 0)
(-2.42724e-08 -1.02445e-09 0)
(-2.24034e-08 -9.41872e-10 0)
(-2.06916e-08 -8.68787e-10 0)
(-1.91194e-08 -8.01537e-10 0)
(-1.76714e-08 -7.41686e-10 0)
(-1.63321e-08 -6.88911e-10 0)
(-1.50875e-08 -6.42719e-10 0)
(-1.39248e-08 -6.02568e-10 0)
(-1.28325e-08 -5.67827e-10 0)
(-1.18009e-08 -5.37768e-10 0)
(-1.08208e-08 -5.12437e-10 0)
(-9.8844e-09 -4.9069e-10 0)
(-8.98518e-09 -4.72153e-10 0)
(-8.11753e-09 -4.56431e-10 0)
(-7.27655e-09 -4.43129e-10 0)
(-6.45808e-09 -4.31905e-10 0)
(-5.65853e-09 -4.22478e-10 0)
(-4.8748e-09 -4.14623e-10 0)
(-4.10417e-09 -4.08162e-10 0)
(-3.3442e-09 -4.02963e-10 0)
(-2.59266e-09 -3.98928e-10 0)
(-1.84751e-09 -3.95981e-10 0)
(-1.10679e-09 -3.94067e-10 0)
(-3.68656e-10 -3.93162e-10 0)
(2.94226e-10 -1.00216e-09 0)
(8.83327e-10 -1.00445e-09 0)
(1.47436e-09 -1.0091e-09 0)
(2.06859e-09 -1.01614e-09 0)
(2.66733e-09 -1.02574e-09 0)
(3.27197e-09 -1.03807e-09 0)
(3.88393e-09 -1.05333e-09 0)
(4.50473e-09 -1.0718e-09 0)
(5.13599e-09 -1.09382e-09 0)
(5.77943e-09 -1.11986e-09 0)
(6.43691e-09 -1.15046e-09 0)
(7.11046e-09 -1.18628e-09 0)
(7.80226e-09 -1.22809e-09 0)
(8.51475e-09 -1.27659e-09 0)
(9.25063e-09 -1.33292e-09 0)
(1.00126e-08 -1.39835e-09 0)
(1.08037e-08 -1.47342e-09 0)
(1.16273e-08 -1.55926e-09 0)
(1.24868e-08 -1.65686e-09 0)
(1.33858e-08 -1.76701e-09 0)
(1.43279e-08 -1.89032e-09 0)
(1.53167e-08 -2.02706e-09 0)
(1.63569e-08 -2.17355e-09 0)
(1.74511e-08 -2.33826e-09 0)
(1.86033e-08 -2.51597e-09 0)
(1.98175e-08 -2.70368e-09 0)
(2.10972e-08 -2.9016e-09 0)
(2.24456e-08 -3.10896e-09 0)
(2.38664e-08 -3.32442e-09 0)
(2.53638e-08 -3.54744e-09 0)
(2.69431e-08 -3.77932e-09 0)
(2.86124e-08 -4.0235e-09 0)
(3.0384e-08 -4.28561e-09 0)
(3.22801e-08 -4.57084e-09 0)
(3.43494e-08 -4.88348e-09 0)
(3.66584e-08 -5.308e-09 0)
(3.92189e-08 -6.03208e-09 0)
(4.20723e-08 -6.9555e-09 0)
(4.52587e-08 -7.88995e-09 0)
(4.86602e-08 -8.87366e-09 0)
(5.24609e-08 -9.23581e-09 0)
(5.50648e-08 -1.09632e-08 0)
(6.2613e-08 -2.82318e-09 0)
(6.83402e-08 -1.38623e-08 0)
(6.70366e-08 -1.59415e-08 0)
(7.95145e-08 2.36818e-08 0)
(1.0334e-07 1.47787e-08 0)
(1.21969e-07 3.59774e-09 0)
(1.62226e-07 4.03574e-09 0)
(1.23495e-07 1.24827e-06 0)
(-9.94862e-08 1.05697e-07 0)
(-8.30554e-08 -4.37915e-08 0)
(-1.04415e-07 -5.39107e-08 0)
(-1.16744e-07 1.98595e-08 0)
(-9.36093e-08 7.53298e-08 0)
(-6.97477e-08 3.98824e-09 0)
(-6.43992e-08 -3.28844e-08 0)
(-6.69936e-08 -1.0536e-08 0)
(-5.73345e-08 -1.89403e-09 0)
(-4.97824e-08 -1.22678e-08 0)
(-4.87182e-08 -7.51599e-09 0)
(-4.51665e-08 -7.06716e-09 0)
(-4.23174e-08 -6.33641e-09 0)
(-3.96699e-08 -5.78688e-09 0)
(-3.72393e-08 -5.4108e-09 0)
(-3.50091e-08 -5.07384e-09 0)
(-3.29331e-08 -4.75316e-09 0)
(-3.09844e-08 -4.45395e-09 0)
(-2.91489e-08 -4.17534e-09 0)
(-2.74163e-08 -3.9128e-09 0)
(-2.57784e-08 -3.66257e-09 0)
(-2.42287e-08 -3.42254e-09 0)
(-2.27618e-08 -3.19259e-09 0)
(-2.13729e-08 -2.97349e-09 0)
(-2.00579e-08 -2.76602e-09 0)
(-1.88127e-08 -2.57014e-09 0)
(-1.76332e-08 -2.38528e-09 0)
(-1.65145e-08 -2.21642e-09 0)
(-1.54531e-08 -2.06407e-09 0)
(-1.44453e-08 -1.92297e-09 0)
(-1.34865e-08 -1.79574e-09 0)
(-1.25727e-08 -1.68208e-09 0)
(-1.17002e-08 -1.58133e-09 0)
(-1.08652e-08 -1.49265e-09 0)
(-1.00642e-08 -1.415e-09 0)
(-9.29349e-09 -1.3472e-09 0)
(-8.55013e-09 -1.28893e-09 0)
(-7.83124e-09 -1.23851e-09 0)
(-7.13395e-09 -1.19506e-09 0)
(-6.45576e-09 -1.15778e-09 0)
(-5.79438e-09 -1.1259e-09 0)
(-5.14771e-09 -1.09875e-09 0)
(-4.51379e-09 -1.07577e-09 0)
(-3.89083e-09 -1.05648e-09 0)
(-3.27712e-09 -1.04052e-09 0)
(-2.67109e-09 -1.02762e-09 0)
(-2.07123e-09 -1.01756e-09 0)
(-1.47609e-09 -1.01018e-09 0)
(-8.84313e-10 -1.00536e-09 0)
(-2.94545e-10 -1.00303e-09 0)
(2.26614e-10 -1.44863e-09 0)
(6.80316e-10 -1.45193e-09 0)
(1.13544e-09 -1.45855e-09 0)
(1.59293e-09 -1.46857e-09 0)
(2.05375e-09 -1.48216e-09 0)
(2.51886e-09 -1.49952e-09 0)
(2.98924e-09 -1.52088e-09 0)
(3.46589e-09 -1.54655e-09 0)
(3.94985e-09 -1.57693e-09 0)
(4.44214e-09 -1.6125e-09 0)
(4.94381e-09 -1.65384e-09 0)
(5.45587e-09 -1.70164e-09 0)
(5.97935e-09 -1.75666e-09 0)
(6.51526e-09 -1.81972e-09 0)
(7.06453e-09 -1.89188e-09 0)
(7.62798e-09 -1.97415e-09 0)
(8.20637e-09 -2.06734e-09 0)
(8.80045e-09 -2.17239e-09 0)
(9.41086e-09 -2.29014e-09 0)
(1.00381e-08 -2.42123e-09 0)
(1.06827e-08 -2.56605e-09 0)
(1.13449e-08 -2.72465e-09 0)
(1.20266e-08 -2.89516e-09 0)
(1.27279e-08 -3.08181e-09 0)
(1.34484e-08 -3.28144e-09 0)
(1.41897e-08 -3.49176e-09 0)
(1.4954e-08 -3.71227e-09 0)
(1.57435e-08 -3.94213e-09 0)
(1.65611e-08 -4.18052e-09 0)
(1.74105e-08 -4.42778e-09 0)
(1.82967e-08 -4.68648e-09 0)
(1.9226e-08 -4.96198e-09 0)
(2.02064e-08 -5.26331e-09 0)
(2.12508e-08 -5.60399e-09 0)
(2.23815e-08 -6.00755e-09 0)
(2.36075e-08 -6.54278e-09 0)
(2.48908e-08 -7.29952e-09 0)
(2.62492e-08 -8.25082e-09 0)
(2.7842e-08 -9.2586e-09 0)
(2.97969e-08 -1.025e-08 0)
(3.22873e-08 -1.08901e-08 0)
(3.50469e-08 -1.13203e-08 0)
(3.91493e-08 -9.66073e-09 0)
(4.2134e-08 -1.31091e-08 0)
(4.36564e-08 -1.07385e-08 0)
(5.16898e-08 -1.71572e-10 0)
(6.44769e-08 -2.5967e-09 0)
(7.29854e-08 -6.18531e-09 0)
(8.16939e-08 -4.12445e-09 0)
(1.31841e-07 1.3979e-06 0)
(-2.76992e-08 1.15993e-07 0)
(-5.59873e-08 -2.0704e-08 0)
(-7.20711e-08 -2.8791e-08 0)
(-7.57669e-08 -3.51183e-09 0)
(-5.92314e-08 1.92585e-08 0)
(-3.82599e-08 -1.09615e-09 0)
(-3.47692e-08 -2.18662e-08 0)
(-3.79426e-08 -1.43819e-08 0)
(-3.45819e-08 -9.45942e-09 0)
(-3.10063e-08 -1.10482e-08 0)
(-2.97043e-08 -9.24582e-09 0)
(-2.79753e-08 -8.34633e-09 0)
(-2.64663e-08 -7.59632e-09 0)
(-2.51056e-08 -6.99098e-09 0)
(-2.38371e-08 -6.53049e-09 0)
(-2.26656e-08 -6.13731e-09 0)
(-2.15671e-08 -5.77909e-09 0)
(-2.05246e-08 -5.44823e-09 0)
(-1.95306e-08 -5.14009e-09 0)
(-1.85806e-08 -4.84976e-09 0)
(-1.76707e-08 -4.57323e-09 0)
(-1.67968e-08 -4.3079e-09 0)
(-1.59552e-08 -4.05307e-09 0)
(-1.51429e-08 -3.80912e-09 0)
(-1.43573e-08 -3.57668e-09 0)
(-1.35966e-08 -3.35605e-09 0)
(-1.28583e-08 -3.14747e-09 0)
(-1.21411e-08 -2.95405e-09 0)
(-1.14453e-08 -2.77644e-09 0)
(-1.07701e-08 -2.61186e-09 0)
(-1.0114e-08 -2.46167e-09 0)
(-9.47646e-09 -2.32577e-09 0)
(-8.85688e-09 -2.20368e-09 0)
(-8.25467e-09 -2.09469e-09 0)
(-7.66909e-09 -1.99793e-09 0)
(-7.0993e-09 -1.91244e-09 0)
(-6.54448e-09 -1.83743e-09 0)
(-6.00376e-09 -1.77176e-09 0)
(-5.4761e-09 -1.71443e-09 0)
(-4.96043e-09 -1.66459e-09 0)
(-4.45569e-09 -1.62144e-09 0)
(-3.96078e-09 -1.5843e-09 0)
(-3.47462e-09 -1.55255e-09 0)
(-2.9961e-09 -1.52571e-09 0)
(-2.52417e-09 -1.50336e-09 0)
(-2.05776e-09 -1.48519e-09 0)
(-1.59583e-09 -1.47096e-09 0)
(-1.13739e-09 -1.46047e-09 0)
(-6.81425e-10 -1.45357e-09 0)
(-2.26971e-10 -1.45017e-09 0)
(1.65893e-10 -1.76041e-09 0)
(4.98002e-10 -1.76437e-09 0)
(8.31085e-10 -1.7723e-09 0)
(1.1658e-09 -1.78429e-09 0)
(1.50278e-09 -1.8005e-09 0)
(1.84269e-09 -1.82111e-09 0)
(2.18614e-09 -1.84637e-09 0)
(2.53377e-09 -1.87657e-09 0)
(2.88619e-09 -1.91209e-09 0)
(3.24397e-09 -1.95336e-09 0)
(3.60766e-09 -2.00092e-09 0)
(3.97771e-09 -2.05536e-09 0)
(4.35452e-09 -2.11737e-09 0)
(4.73838e-09 -2.18768e-09 0)
(5.12946e-09 -2.26712e-09 0)
(5.52775e-09 -2.3565e-09 0)
(5.93313e-09 -2.45657e-09 0)
(6.34538e-09 -2.56806e-09 0)
(6.76414e-09 -2.69163e-09 0)
(7.18899e-09 -2.82778e-09 0)
(7.61947e-09 -2.97682e-09 0)
(8.05523e-09 -3.13876e-09 0)
(8.4964e-09 -3.31326e-09 0)
(8.94262e-09 -3.50132e-09 0)
(9.39356e-09 -3.70174e-09 0)
(9.84991e-09 -3.91334e-09 0)
(1.03129e-08 -4.13543e-09 0)
(1.07839e-08 -4.36739e-09 0)
(1.12647e-08 -4.60878e-09 0)
(1.17568e-08 -4.86005e-09 0)
(1.22609e-08 -5.12318e-09 0)
(1.27759e-08 -5.40238e-09 0)
(1.32983e-08 -5.70553e-09 0)
(1.38228e-08 -6.04752e-09 0)
(1.43468e-08 -6.4588e-09 0)
(1.48739e-08 -7.00327e-09 0)
(1.54734e-08 -7.77792e-09 0)
(1.62308e-08 -8.84531e-09 0)
(1.74182e-08 -1.01869e-08 0)
(1.91953e-08 -1.16372e-08 0)
(2.15155e-08 -1.27746e-08 0)
(2.41418e-08 -1.33442e-08 0)
(2.7134e-08 -1.32531e-08 0)
(3.00385e-08 -1.42207e-08 0)
(3.34484e-08 -1.31374e-08 0)
(3.93823e-08 -1.04242e-08 0)
(4.63237e-08 -1.01156e-08 0)
(5.0164e-08 -8.20148e-09 0)
(4.48038e-08 2.90265e-09 0)
(8.69274e-08 9.14211e-07 0)
(9.5843e-09 1.91091e-07 0)
(-3.4963e-08 2.27065e-09 0)
(-4.78542e-08 -1.60387e-08 0)
(-4.89659e-08 -9.17763e-09 0)
(-3.95695e-08 -2.21709e-09 0)
(-2.84463e-08 -8.69159e-09 0)
(-2.43979e-08 -1.70824e-08 0)
(-2.40076e-08 -1.52827e-08 0)
(-2.20201e-08 -1.2661e-08 0)
(-1.98984e-08 -1.1613e-08 0)
(-1.84798e-08 -1.01524e-08 0)
(-1.73101e-08 -9.01547e-09 0)
(-1.6421e-08 -8.14271e-09 0)
(-1.57072e-08 -7.47646e-09 0)
(-1.51011e-08 -6.97641e-09 0)
(-1.45436e-08 -6.57221e-09 0)
(-1.40036e-08 -6.21767e-09 0)
(-1.34685e-08 -5.89188e-09 0)
(-1.2938e-08 -5.58552e-09 0)
(-1.24152e-08 -5.29409e-09 0)
(-1.19027e-08 -5.0151e-09 0)
(-1.14012e-08 -4.7472e-09 0)
(-1.09101e-08 -4.49009e-09 0)
(-1.04282e-08 -4.24408e-09 0)
(-9.95447e-09 -4.00965e-09 0)
(-9.48764e-09 -3.78722e-09 0)
(-9.02673e-09 -3.5773e-09 0)
(-8.57129e-09 -3.38109e-09 0)
(-8.12169e-09 -3.19905e-09 0)
(-7.67815e-09 -3.03036e-09 0)
(-7.24056e-09 -2.87525e-09 0)
(-6.80926e-09 -2.7336e-09 0)
(-6.38466e-09 -2.60504e-09 0)
(-5.96717e-09 -2.48902e-09 0)
(-5.5571e-09 -2.38484e-09 0)
(-5.15462e-09 -2.29173e-09 0)
(-4.75982e-09 -2.20895e-09 0)
(-4.37268e-09 -2.13562e-09 0)
(-3.99299e-09 -2.0709e-09 0)
(-3.62042e-09 -2.01405e-09 0)
(-3.25454e-09 -1.96436e-09 0)
(-2.89486e-09 -1.92123e-09 0)
(-2.54082e-09 -1.88409e-09 0)
(-2.19179e-09 -1.8525e-09 0)
(-1.84713e-09 -1.82607e-09 0)
(-1.50619e-09 -1.80449e-09 0)
(-1.1683e-09 -1.78753e-09 0)
(-8.32784e-10 -1.77497e-09 0)
(-4.98979e-10 -1.76669e-09 0)
(-1.6621e-10 -1.76257e-09 0)
(1.16703e-10 -1.96662e-09 0)
(3.50316e-10 -1.97097e-09 0)
(5.84556e-10 -1.9797e-09 0)
(8.19845e-10 -1.99289e-09 0)
(1.0566e-09 -2.01067e-09 0)
(1.29521e-09 -2.03322e-09 0)
(1.53607e-09 -2.06077e-09 0)
(1.77954e-09 -2.09358e-09 0)
(2.02597e-09 -2.13199e-09 0)
(2.27566e-09 -2.17638e-09 0)
(2.52885e-09 -2.22722e-09 0)
(2.78573e-09 -2.285e-09 0)
(3.04639e-09 -2.3503e-09 0)
(3.31084e-09 -2.42374e-09 0)
(3.57894e-09 -2.50596e-09 0)
(3.85048e-09 -2.59762e-09 0)
(4.1251e-09 -2.69935e-09 0)
(4.40235e-09 -2.81176e-09 0)
(4.68174e-09 -2.93538e-09 0)
(4.9627e-09 -3.07065e-09 0)
(5.24469e-09 -3.21788e-09 0)
(5.52728e-09 -3.37723e-09 0)
(5.81019e-09 -3.54874e-09 0)
(6.09314e-09 -3.73259e-09 0)
(6.37598e-09 -3.92836e-09 0)
(6.65901e-09 -4.13544e-09 0)
(6.94278e-09 -4.35324e-09 0)
(7.22793e-09 -4.58113e-09 0)
(7.5148e-09 -4.81845e-09 0)
(7.80297e-09 -5.06482e-09 0)
(8.09029e-09 -5.32054e-09 0)
(8.37205e-09 -5.58768e-09 0)
(8.64093e-09 -5.87305e-09 0)
(8.88987e-09 -6.1955e-09 0)
(9.12196e-09 -6.60155e-09 0)
(9.38218e-09 -7.19176e-09 0)
(9.73555e-09 -8.09414e-09 0)
(1.0352e-08 -9.47656e-09 0)
(1.1383e-08 -1.13254e-08 0)
(1.28612e-08 -1.32995e-08 0)
(1.4669e-08 -1.48202e-08 0)
(1.67268e-08 -1.56494e-08 0)
(1.91967e-08 -1.61592e-08 0)
(2.21804e-08 -1.69755e-08 0)
(2.58999e-08 -1.71294e-08 0)
(3.05401e-08 -1.63107e-08 0)
(3.51251e-08 -1.44166e-08 0)
(3.74429e-08 -7.86876e-09 0)
(3.13036e-08 1.79361e-08 0)
(6.026e-08 7.01676e-07 0)
(2.63579e-08 2.72403e-07 0)
(-1.76569e-08 2.77122e-08 0)
(-3.28543e-08 -7.48746e-09 0)
(-3.52083e-08 -1.1788e-08 0)
(-3.05273e-08 -1.18483e-08 0)
(-2.3967e-08 -1.48869e-08 0)
(-1.96482e-08 -1.77464e-08 0)
(-1.72124e-08 -1.67925e-08 0)
(-1.51201e-08 -1.47073e-08 0)
(-1.3382e-08 -1.28458e-08 0)
(-1.20837e-08 -1.10941e-08 0)
(-1.1107e-08 -9.64521e-09 0)
(-1.04095e-08 -8.53285e-09 0)
(-9.92739e-09 -7.72833e-09 0)
(-9.57412e-09 -7.15238e-09 0)
(-9.28593e-09 -6.72471e-09 0)
(-9.01734e-09 -6.37661e-09 0)
(-8.74437e-09 -6.06638e-09 0)
(-8.46207e-09 -5.7745e-09 0)
(-8.17299e-09 -5.49373e-09 0)
(-7.88101e-09 -5.2222e-09 0)
(-7.58882e-09 -4.95999e-09 0)
(-7.29767e-09 -4.70779e-09 0)
(-7.0078e-09 -4.46643e-09 0)
(-6.71897e-09 -4.23658e-09 0)
(-6.43077e-09 -4.01877e-09 0)
(-6.14279e-09 -3.81344e-09 0)
(-5.85491e-09 -3.62106e-09 0)
(-5.56734e-09 -3.44182e-09 0)
(-5.28039e-09 -3.27545e-09 0)
(-4.99433e-09 -3.12185e-09 0)
(-4.70963e-09 -2.98078e-09 0)
(-4.42682e-09 -2.85188e-09 0)
(-4.14644e-09 -2.73466e-09 0)
(-3.869e-09 -2.62854e-09 0)
(-3.59493e-09 -2.53291e-09 0)
(-3.32454e-09 -2.44709e-09 0)
(-3.05808e-09 -2.37041e-09 0)
(-2.79562e-09 -2.3022e-09 0)
(-2.53716e-09 -2.24181e-09 0)
(-2.28258e-09 -2.18867e-09 0)
(-2.03168e-09 -2.14225e-09 0)
(-1.7842e-09 -2.10208e-09 0)
(-1.53982e-09 -2.06775e-09 0)
(-1.29817e-09 -2.03893e-09 0)
(-1.05888e-09 -2.01532e-09 0)
(-8.21526e-10 -1.99671e-09 0)
(-5.85702e-10 -1.98291e-09 0)
(-3.50978e-10 -1.97378e-09 0)
(-1.16918e-10 -1.96924e-09 0)
(8.10255e-11 -2.10205e-09 0)
(2.43207e-10 -2.10663e-09 0)
(4.05782e-10 -2.11584e-09 0)
(5.69013e-10 -2.12973e-09 0)
(7.33157e-10 -2.14844e-09 0)
(8.98457e-10 -2.17213e-09 0)
(1.06514e-09 -2.20099e-09 0)
(1.23343e-09 -2.23528e-09 0)
(1.40349e-09 -2.2753e-09 0)
(1.5755e-09 -2.32137e-09 0)
(1.74954e-09 -2.37391e-09 0)
(1.92569e-09 -2.43334e-09 0)
(2.10393e-09 -2.50016e-09 0)
(2.28418e-09 -2.57487e-09 0)
(2.46628e-09 -2.65803e-09 0)
(2.64999e-09 -2.7502e-09 0)
(2.835e-09 -2.8519e-09 0)
(3.02094e-09 -2.96369e-09 0)
(3.20741e-09 -3.08603e-09 0)
(3.39397e-09 -3.21936e-09 0)
(3.58023e-09 -3.36403e-09 0)
(3.76586e-09 -3.5203e-09 0)
(3.95063e-09 -3.68835e-09 0)
(4.13437e-09 -3.86828e-09 0)
(4.31705e-09 -4.05995e-09 0)
(4.49881e-09 -4.26303e-09 0)
(4.67992e-09 -4.47701e-09 0)
(4.86058e-09 -4.70116e-09 0)
(5.04064e-09 -4.93448e-09 0)
(5.21922e-09 -5.17577e-09 0)
(5.39409e-09 -5.42423e-09 0)
(5.56144e-09 -5.68123e-09 0)
(5.71674e-09 -5.95535e-09 0)
(5.85804e-09 -6.27395e-09 0)
(6.00242e-09 -6.70704e-09 0)
(6.17462e-09 -7.3675e-09 0)
(6.45104e-09 -8.44951e-09 0)
(6.91086e-09 -1.01133e-08 0)
(7.58904e-09 -1.22924e-08 0)
(8.44998e-09 -1.45314e-08 0)
(9.488e-09 -1.62575e-08 0)
(1.08867e-08 -1.74219e-08 0)
(1.2926e-08 -1.85174e-08 0)
(1.56851e-08 -1.97825e-08 0)
(1.91548e-08 -2.06037e-08 0)
(2.31627e-08 -2.01839e-08 0)
(2.6918e-08 -1.71755e-08 0)
(2.85851e-08 -6.86312e-09 0)
(2.39137e-08 3.3013e-08 0)
(4.40016e-08 6.10994e-07 0)
(3.17928e-08 3.26721e-07 0)
(-4.87226e-09 5.88704e-08 0)
(-2.31031e-08 1.72824e-09 0)
(-2.75758e-08 -1.2048e-08 0)
(-2.55073e-08 -1.70824e-08 0)
(-2.0774e-08 -1.99958e-08 0)
(-1.62836e-08 -2.07195e-08 0)
(-1.30079e-08 -1.90224e-08 0)
(-1.07765e-08 -1.64842e-08 0)
(-9.28459e-09 -1.4078e-08 0)
(-8.25774e-09 -1.19908e-08 0)
(-7.50829e-09 -1.02765e-08 0)
(-6.96093e-09 -8.94668e-09 0)
(-6.57632e-09 -7.97932e-09 0)
(-6.31076e-09 -7.30634e-09 0)
(-6.11084e-09 -6.82791e-09 0)
(-5.94155e-09 -6.4637e-09 0)
(-5.77852e-09 -6.15564e-09 0)
(-5.61081e-09 -5.87163e-09 0)
(-5.43712e-09 -5.5988e-09 0)
(-5.25907e-09 -5.33372e-09 0)
(-5.07854e-09 -5.07667e-09 0)
(-4.8967e-09 -4.82895e-09 0)
(-4.71407e-09 -4.59179e-09 0)
(-4.53072e-09 -4.36611e-09 0)
(-4.34651e-09 -4.15251e-09 0)
(-4.16129e-09 -3.95136e-09 0)
(-3.97501e-09 -3.76286e-09 0)
(-3.78778e-09 -3.58702e-09 0)
(-3.59979e-09 -3.42364e-09 0)
(-3.41131e-09 -3.27248e-09 0)
(-3.22268e-09 -3.13322e-09 0)
(-3.03431e-09 -3.00545e-09 0)
(-2.84663e-09 -2.88872e-09 0)
(-2.66003e-09 -2.7825e-09 0)
(-2.47489e-09 -2.68623e-09 0)
(-2.29151e-09 -2.59935e-09 0)
(-2.11012e-09 -2.52128e-09 0)
(-1.93088e-09 -2.45144e-09 0)
(-1.75385e-09 -2.3893e-09 0)
(-1.57904e-09 -2.33436e-09 0)
(-1.40637e-09 -2.28617e-09 0)
(-1.23574e-09 -2.24431e-09 0)
(-1.06697e-09 -2.20844e-09 0)
(-8.99878e-10 -2.17823e-09 0)
(-7.34231e-10 -2.15345e-09 0)
(-5.69792e-10 -2.13387e-09 0)
(-4.06306e-10 -2.11933e-09 0)
(-2.43508e-10 -2.1097e-09 0)
(-8.11232e-11 -2.1049e-09 0)
(5.71378e-11 -2.19695e-09 0)
(1.71495e-10 -2.20169e-09 0)
(2.86099e-10 -2.21119e-09 0)
(4.01113e-10 -2.22554e-09 0)
(5.16694e-10 -2.24484e-09 0)
(6.32993e-10 -2.26924e-09 0)
(7.50144e-10 -2.29893e-09 0)
(8.6827e-10 -2.33414e-09 0)
(9.87473e-10 -2.37514e-09 0)
(1.10783e-09 -2.42223e-09 0)
(1.22938e-09 -2.47578e-09 0)
(1.35215e-09 -2.53618e-09 0)
(1.47608e-09 -2.60384e-09 0)
(1.6011e-09 -2.67924e-09 0)
(1.72708e-09 -2.76285e-09 0)
(1.85384e-09 -2.85518e-09 0)
(1.98114e-09 -2.95672e-09 0)
(2.10874e-09 -3.06796e-09 0)
(2.23635e-09 -3.18939e-09 0)
(2.36371e-09 -3.32143e-09 0)
(2.49056e-09 -3.46448e-09 0)
(2.61671e-09 -3.61888e-09 0)
(2.74201e-09 -3.78489e-09 0)
(2.86641e-09 -3.96269e-09 0)
(2.98994e-09 -4.1523e-09 0)
(3.11275e-09 -4.35354e-09 0)
(3.23506e-09 -4.56598e-09 0)
(3.35707e-09 -4.78889e-09 0)
(3.47884e-09 -5.02112e-09 0)
(3.60012e-09 -5.26122e-09 0)
(3.72015e-09 -5.50825e-09 0)
(3.83785e-09 -5.76431e-09 0)
(3.95261e-09 -6.04108e-09 0)
(4.06838e-09 -6.3743e-09 0)
(4.19324e-09 -6.83706e-09 0)
(4.34644e-09 -7.56493e-09 0)
(4.55298e-09 -8.7392e-09 0)
(4.81208e-09 -1.04846e-08 0)
(5.08096e-09 -1.26833e-08 0)
(5.33548e-09 -1.49058e-08 0)
(5.70763e-09 -1.67657e-08 0)
(6.48916e-09 -1.83722e-08 0)
(7.93069e-09 -2.01196e-08 0)
(1.01965e-08 -2.20922e-08 0)
(1.34338e-08 -2.37095e-08 0)
(1.74247e-08 -2.36415e-08 0)
(2.09814e-08 -1.94747e-08 0)
(2.20243e-08 -5.29698e-09 0)
(1.75498e-08 4.57456e-08 0)
(3.14554e-08 5.52998e-07 0)
(3.17643e-08 3.54224e-07 0)
(3.90474e-09 9.20952e-08 0)
(-1.54635e-08 1.31418e-08 0)
(-2.21673e-08 -1.00492e-08 0)
(-2.20641e-08 -2.02227e-08 0)
(-1.82126e-08 -2.46753e-08 0)
(-1.35533e-08 -2.46143e-08 0)
(-9.9056e-09 -2.16686e-08 0)
(-7.67073e-09 -1.80965e-08 0)
(-6.44639e-09 -1.50353e-08 0)
(-5.75105e-09 -1.26285e-08 0)
(-5.28129e-09 -1.07494e-08 0)
(-4.91709e-09 -9.30292e-09 0)
(-4.63018e-09 -8.23615e-09 0)
(-4.41104e-09 -7.48367e-09 0)
(-4.24308e-09 -6.95707e-09 0)
(-4.1026e-09 -6.56327e-09 0)
(-3.97777e-09 -6.24306e-09 0)
(-3.85724e-09 -5.95561e-09 0)
(-3.73705e-09 -5.68282e-09 0)
(-3.61616e-09 -5.41882e-09 0)
(-3.49461e-09 -5.16311e-09 0)
(-3.37256e-09 -4.91682e-09 0)
(-3.25006e-09 -4.68127e-09 0)
(-3.12699e-09 -4.45743e-09 0)
(-3.0032e-09 -4.24588e-09 0)
(-2.87854e-09 -4.0469e-09 0)
(-2.75296e-09 -3.86056e-09 0)
(-2.62646e-09 -3.68673e-09 0)
(-2.49914e-09 -3.52518e-09 0)
(-2.37117e-09 -3.37558e-09 0)
(-2.24277e-09 -3.23753e-09 0)
(-2.11419e-09 -3.11061e-09 0)
(-1.98572e-09 -2.99433e-09 0)
(-1.85763e-09 -2.8882e-09 0)
(-1.73018e-09 -2.7917e-09 0)
(-1.60358e-09 -2.70429e-09 0)
(-1.47803e-09 -2.62546e-09 0)
(-1.35363e-09 -2.5547e-09 0)
(-1.23049e-09 -2.49154e-09 0)
(-1.10861e-09 -2.43553e-09 0)
(-9.88001e-10 -2.38627e-09 0)
(-8.68599e-10 -2.34338e-09 0)
(-7.50324e-10 -2.30654e-09 0)
(-6.33069e-10 -2.27547e-09 0)
(-5.16704e-10 -2.24994e-09 0)
(-4.01087e-10 -2.22975e-09 0)
(-2.86062e-10 -2.21474e-09 0)
(-1.71465e-10 -2.20479e-09 0)
(-5.71265e-11 -2.19984e-09 0)
(4.17778e-11 -2.27146e-09 0)
(1.25384e-10 -2.2763e-09 0)
(2.09144e-10 -2.28602e-09 0)
(2.93156e-10 -2.30068e-09 0)
(3.77517e-10 -2.3204e-09 0)
(4.62316e-10 -2.34532e-09 0)
(5.47633e-10 -2.3756e-09 0)
(6.33535e-10 -2.41147e-09 0)
(7.20076e-10 -2.45317e-09 0)
(8.0729e-10 -2.50101e-09 0)
(8.95192e-10 -2.5553e-09 0)
(9.83768e-10 -2.6164e-09 0)
(1.07298e-09 -2.68472e-09 0)
(1.16275e-09 -2.76067e-09 0)
(1.25298e-09 -2.84471e-09 0)
(1.34354e-09 -2.93731e-09 0)
(1.43426e-09 -3.03893e-09 0)
(1.52499e-09 -3.15007e-09 0)
(1.61553e-09 -3.2712e-09 0)
(1.70572e-09 -3.40277e-09 0)
(1.79541e-09 -3.54522e-09 0)
(1.88448e-09 -3.69896e-09 0)
(1.97288e-09 -3.86431e-09 0)
(2.06063e-09 -4.04155e-09 0)
(2.14783e-09 -4.23082e-09 0)
(2.23469e-09 -4.43209e-09 0)
(2.32154e-09 -4.64507e-09 0)
(2.40882e-09 -4.86916e-09 0)
(2.4971e-09 -5.10337e-09 0)
(2.58714e-09 -5.34651e-09 0)
(2.67996e-09 -5.59822e-09 0)
(2.77709e-09 -5.86177e-09 0)
(2.88106e-09 -6.15115e-09 0)
(2.99596e-09 -6.50352e-09 0)
(3.12386e-09 -6.99076e-09 0)
(3.26642e-09 -7.73843e-09 0)
(3.4084e-09 -8.89369e-09 0)
(3.50124e-09 -1.05359e-08 0)
(3.47463e-09 -1.25485e-08 0)
(3.32119e-09 -1.46312e-08 0)
(3.19051e-09 -1.65939e-08 0)
(3.35334e-09 -1.86185e-08 0)
(4.12754e-09 -2.11023e-08 0)
(5.92322e-09 -2.42013e-08 0)
(9.10022e-09 -2.7117e-08 0)
(1.32889e-08 -2.74336e-08 0)
(1.66841e-08 -2.14938e-08 0)
(1.70343e-08 -2.98644e-09 0)
(1.15826e-08 5.7996e-08 0)
(2.06292e-08 5.09819e-07 0)
(2.86998e-08 3.65661e-07 0)
(9.41733e-09 1.22511e-07 0)
(-9.10442e-09 2.65613e-08 0)
(-1.75446e-08 -5.97233e-09 0)
(-1.89651e-08 -2.1941e-08 0)
(-1.57829e-08 -2.91413e-08 0)
(-1.10888e-08 -2.8891e-08 0)
(-7.3863e-09 -2.44745e-08 0)
(-5.30976e-09 -1.95273e-08 0)
(-4.38288e-09 -1.56774e-08 0)
(-4.00397e-09 -1.29578e-08 0)
(-3.79932e-09 -1.09968e-08 0)
(-3.61807e-09 -9.53405e-09 0)
(-3.43479e-09 -8.44894e-09 0)
(-3.26295e-09 -7.66614e-09 0)
(-3.11322e-09 -7.10629e-09 0)
(-2.98454e-09 -6.68826e-09 0)
(-2.87207e-09 -6.34914e-09 0)
(-2.77095e-09 -6.05031e-09 0)
(-2.67639e-09 -5.77077e-09 0)
(-2.58571e-09 -5.5027e-09 0)
(-2.49725e-09 -5.24449e-09 0)
(-2.41001e-09 -4.9967e-09 0)
(-2.32331e-09 -4.76037e-09 0)
(-2.23669e-09 -4.53628e-09 0)
(-2.14978e-09 -4.32489e-09 0)
(-2.06236e-09 -4.12635e-09 0)
(-1.97429e-09 -3.94061e-09 0)
(-1.8855e-09 -3.76744e-09 0)
(-1.79604e-09 -3.60653e-09 0)
(-1.70596e-09 -3.45748e-09 0)
(-1.61541e-09 -3.31985e-09 0)
(-1.52454e-09 -3.19317e-09 0)
(-1.43353e-09 -3.07694e-09 0)
(-1.34257e-09 -2.97067e-09 0)
(-1.25182e-09 -2.87384e-09 0)
(-1.16145e-09 -2.78595e-09 0)
(-1.07157e-09 -2.70651e-09 0)
(-9.82305e-10 -2.63506e-09 0)
(-8.93711e-10 -2.57114e-09 0)
(-8.05829e-10 -2.51435e-09 0)
(-7.1867e-10 -2.46432e-09 0)
(-6.32216e-10 -2.42069e-09 0)
(-5.46429e-10 -2.38316e-09 0)
(-4.61254e-10 -2.35148e-09 0)
(-3.76617e-10 -2.32541e-09 0)
(-2.92437e-10 -2.30478e-09 0)
(-2.0862e-10 -2.28944e-09 0)
(-1.25066e-10 -2.27927e-09 0)
(-4.1671e-11 -2.2742e-09 0)
(3.19353e-11 -2.33619e-09 0)
(9.58353e-11 -2.34111e-09 0)
(1.59823e-10 -2.351e-09 0)
(2.23956e-10 -2.36591e-09 0)
(2.88286e-10 -2.38595e-09 0)
(3.52862e-10 -2.41125e-09 0)
(4.17723e-10 -2.44198e-09 0)
(4.82901e-10 -2.47835e-09 0)
(5.48416e-10 -2.5206e-09 0)
(6.14273e-10 -2.569e-09 0)
(6.80464e-10 -2.62387e-09 0)
(7.4696e-10 -2.68554e-09 0)
(8.13714e-10 -2.7544e-09 0)
(8.80659e-10 -2.83084e-09 0)
(9.47708e-10 -2.9153e-09 0)
(1.01475e-09 -3.00822e-09 0)
(1.08168e-09 -3.11008e-09 0)
(1.14836e-09 -3.22136e-09 0)
(1.21466e-09 -3.34253e-09 0)
(1.28047e-09 -3.47409e-09 0)
(1.3457e-09 -3.61649e-09 0)
(1.41029e-09 -3.7702e-09 0)
(1.47424e-09 -3.93562e-09 0)
(1.53761e-09 -4.11312e-09 0)
(1.60057e-09 -4.30296e-09 0)
(1.66342e-09 -4.50526e-09 0)
(1.72663e-09 -4.71995e-09 0)
(1.79094e-09 -4.94669e-09 0)
(1.85744e-09 -5.18488e-09 0)
(1.92775e-09 -5.43397e-09 0)
(2.00424e-09 -5.69443e-09 0)
(2.09012e-09 -5.97066e-09 0)
(2.1893e-09 -6.27731e-09 0)
(2.30392e-09 -6.64763e-09 0)
(2.43145e-09 -7.14653e-09 0)
(2.55801e-09 -7.87441e-09 0)
(2.64622e-09 -8.93986e-09 0)
(2.62847e-09 -1.03915e-08 0)
(2.42806e-09 -1.21463e-08 0)
(2.02865e-09 -1.40341e-08 0)
(1.54276e-09 -1.60175e-08 0)
(1.22347e-09 -1.83963e-08 0)
(1.47493e-09 -2.17446e-08 0)
(2.88045e-09 -2.63663e-08 0)
(5.97007e-09 -3.09436e-08 0)
(1.02293e-08 -3.14678e-08 0)
(1.34156e-08 -2.32092e-08 0)
(1.29031e-08 2.51667e-10 0)
(5.95314e-09 7.1667e-08 0)
(1.13495e-08 4.72557e-07 0)
(2.46071e-08 3.6597e-07 0)
(1.26238e-08 1.47386e-07 0)
(-3.91735e-09 4.11006e-08 0)
(-1.33247e-08 -3.07933e-10 0)
(-1.58246e-08 -2.26158e-08 0)
(-1.31929e-08 -3.33458e-08 0)
(-8.68664e-09 -3.32404e-08 0)
(-5.21446e-09 -2.71719e-08 0)
(-3.47114e-09 -2.06974e-08 0)
(-2.86644e-09 -1.60302e-08 0)
(-2.75192e-09 -1.30331e-08 0)
(-2.75205e-09 -1.10516e-08 0)
(-2.71681e-09 -9.64142e-09 0)
(-2.62474e-09 -8.59863e-09 0)
(-2.5012e-09 -7.82822e-09 0)
(-2.37316e-09 -7.25882e-09 0)
(-2.25544e-09 -6.82342e-09 0)
(-2.15199e-09 -6.46627e-09 0)
(-2.06249e-09 -6.15283e-09 0)
(-1.98357e-09 -5.86275e-09 0)
(-1.91193e-09 -5.58744e-09 0)
(-1.84492e-09 -5.32433e-09 0)
(-1.78066e-09 -5.07327e-09 0)
(-1.71786e-09 -4.83477e-09 0)
(-1.65566e-09 -4.6093e-09 0)
(-1.5935e-09 -4.39708e-09 0)
(-1.531e-09 -4.19809e-09 0)
(-1.46796e-09 -4.01215e-09 0)
(-1.40426e-09 -3.83893e-09 0)
(-1.33987e-09 -3.67803e-09 0)
(-1.27481e-09 -3.529e-09 0)
(-1.20916e-09 -3.39136e-09 0)
(-1.14303e-09 -3.26459e-09 0)
(-1.07653e-09 -3.14818e-09 0)
(-1.00979e-09 -3.04163e-09 0)
(-9.42959e-10 -2.94442e-09 0)
(-8.76139e-10 -2.85608e-09 0)
(-8.09441e-10 -2.77612e-09 0)
(-7.42951e-10 -2.70409e-09 0)
(-6.76737e-10 -2.63958e-09 0)
(-6.10846e-10 -2.58218e-09 0)
(-5.45303e-10 -2.53155e-09 0)
(-4.80118e-10 -2.48735e-09 0)
(-4.15282e-10 -2.44931e-09 0)
(-3.50776e-10 -2.41716e-09 0)
(-2.86565e-10 -2.39069e-09 0)
(-2.22608e-10 -2.36973e-09 0)
(-1.58856e-10 -2.35413e-09 0)
(-9.52527e-11 -2.34379e-09 0)
(-3.17408e-11 -2.33864e-09 0)
(2.54248e-11 -2.39467e-09 0)
(7.6287e-11 -2.39966e-09 0)
(1.27186e-10 -2.40965e-09 0)
(1.78146e-10 -2.42473e-09 0)
(2.29184e-10 -2.44499e-09 0)
(2.80317e-10 -2.47056e-09 0)
(3.31552e-10 -2.5016e-09 0)
(3.82891e-10 -2.53831e-09 0)
(4.34326e-10 -2.58092e-09 0)
(4.85838e-10 -2.6297e-09 0)
(5.37395e-10 -2.68494e-09 0)
(5.88952e-10 -2.74697e-09 0)
(6.40449e-10 -2.81616e-09 0)
(6.91814e-10 -2.89289e-09 0)
(7.42958e-10 -2.97759e-09 0)
(7.93783e-10 -3.07069e-09 0)
(8.44182e-10 -3.17266e-09 0)
(8.94045e-10 -3.28398e-09 0)
(9.43265e-10 -3.40513e-09 0)
(9.91749e-10 -3.53664e-09 0)
(1.03943e-09 -3.67899e-09 0)
(1.08627e-09 -3.83269e-09 0)
(1.1323e-09 -3.99822e-09 0)
(1.17761e-09 -4.17604e-09 0)
(1.22242e-09 -4.36653e-09 0)
(1.26709e-09 -4.57e-09 0)
(1.31223e-09 -4.78663e-09 0)
(1.35876e-09 -5.01644e-09 0)
(1.40812e-09 -5.25939e-09 0)
(1.46243e-09 -5.51568e-09 0)
(1.52465e-09 -5.78672e-09 0)
(1.59853e-09 -6.07763e-09 0)
(1.68773e-09 -6.40219e-09 0)
(1.79267e-09 -6.78841e-09 0)
(1.9066e-09 -7.28858e-09 0)
(2.00717e-09 -7.97679e-09 0)
(2.04863e-09 -8.92788e-09 0)
(1.96079e-09 -1.01722e-08 0)
(1.66961e-09 -1.16617e-08 0)
(1.14888e-09 -1.33258e-08 0)
(4.79814e-10 -1.5256e-08 0)
(-1.10483e-10 -1.79194e-08 0)
(-2.19791e-10 -2.21529e-08 0)
(7.88214e-10 -2.84453e-08 0)
(3.59673e-09 -3.48966e-08 0)
(7.71531e-09 -3.56349e-08 0)
(1.04764e-08 -2.4361e-08 0)
(8.96498e-09 4.59167e-09 0)
(9.38663e-10 8.66097e-08 0)
(4.73537e-09 4.36918e-07 0)
(2.08107e-08 3.60084e-07 0)
(1.41572e-08 1.66447e-07 0)
(5.85679e-11 5.56431e-08 0)
(-9.51449e-09 6.32539e-09 0)
(-1.26061e-08 -2.26014e-08 0)
(-1.03628e-08 -3.7247e-08 0)
(-6.22984e-09 -3.72556e-08 0)
(-3.27588e-09 -2.94707e-08 0)
(-2.01829e-09 -2.15027e-08 0)
(-1.74522e-09 -1.61209e-08 0)
(-1.83349e-09 -1.29291e-08 0)
(-1.96702e-09 -1.09799e-08 0)
(-2.02732e-09 -9.66041e-09 0)
(-2.00265e-09 -8.69195e-09 0)
(-1.92297e-09 -7.95905e-09 0)
(-1.82157e-09 -7.39652e-09 0)
(-1.72083e-09 -6.95111e-09 0)
(-1.63096e-09 -6.57901e-09 0)
(-1.55452e-09 -6.2507e-09 0)
(-1.48999e-09 -5.94889e-09 0)
(-1.43428e-09 -5.66514e-09 0)
(-1.38448e-09 -5.39625e-09 0)
(-1.33826e-09 -5.14135e-09 0)
(-1.29399e-09 -4.90037e-09 0)
(-1.25054e-09 -4.67333e-09 0)
(-1.20718e-09 -4.46018e-09 0)
(-1.16344e-09 -4.26068e-09 0)
(-1.11903e-09 -4.0745e-09 0)
(-1.07379e-09 -3.90121e-09 0)
(-1.02766e-09 -3.74034e-09 0)
(-9.80647e-10 -3.59136e-09 0)
(-9.32793e-10 -3.45375e-09 0)
(-8.8418e-10 -3.32698e-09 0)
(-8.34909e-10 -3.21051e-09 0)
(-7.8509e-10 -3.10383e-09 0)
(-7.34836e-10 -3.00643e-09 0)
(-6.84258e-10 -2.91782e-09 0)
(-6.33455e-10 -2.83755e-09 0)
(-5.82517e-10 -2.76517e-09 0)
(-5.31518e-10 -2.70028e-09 0)
(-4.80519e-10 -2.64249e-09 0)
(-4.29564e-10 -2.59147e-09 0)
(-3.78687e-10 -2.5469e-09 0)
(-3.27905e-10 -2.5085e-09 0)
(-2.77229e-10 -2.47603e-09 0)
(-2.26656e-10 -2.44929e-09 0)
(-1.76178e-10 -2.4281e-09 0)
(-1.2578e-10 -2.41233e-09 0)
(-7.5443e-11 -2.40187e-09 0)
(-2.51434e-11 -2.39666e-09 0)
(2.08281e-11 -2.44659e-09 0)
(6.24819e-11 -2.45161e-09 0)